ITEM: TIMESTEP
0
ITEM: NUMBER OF ATOMS
3
ITEM: BOX BOUNDS mm mm mm
-1.0000000000000000e-03 1.0000000000000000e-03
-1.0000000000000000e-03 1.0000000000000000e-03
-1.0000000000000000e-03 1.0000000000000000e-03
ITEM: ATOMS id x y z vx vy vz
1 -4.09137e-05 -3.81727e-05 0.000140738 0 0 0
2 0.000287276 0.000155408 0.000149643 0 0 0
3 0.000253905 0.000357145 -0.000260437 0 0 0
ITEM: TIMESTEP
10
ITEM: NUMBER OF ATOMS
3
ITEM: BOX BOUNDS mm mm mm
-1.0000000000000000e-03 1.0000000000000000e-03
-1.0000000000000000e-03 1.0000000000000000e-03
-1.0000000000000000e-03 1.0000000000000000e-03
ITEM: ATOMS id x y z vx vy vz
1 -2.0343e-05 -1.90038e-05 -0.000132372 -303.941 -283.762 42.2646
2 0.000143178 7.7455e-05 -0.00014066 2139.19 1157.26 44.8064
3 0.000126605 0.000178079 0.000242585 1891.21 2660.16 -77.7194
ITEM: TIMESTEP
20
ITEM: NUMBER OF ATOMS
3
ITEM: BOX BOUNDS mm mm mm
-1.0000000000000000e-03 1.0000000000000000e-03
-1.0000000000000000e-03 1.0000000000000000e-03
-1.0000000000000000e-03 1.0000000000000000e-03
ITEM: ATOMS id x y z vx vy vz
1 1.71492e-05 1.58889e-05 0.000121652 -309.796 -287.501 -79.271
2 -0.000118652 -6.41982e-05 0.000129664 2148.89 1162.81 -84.1471
3 -0.000104585 -0.00014712 -0.000225594 1895.33 2665.9 145.879
ITEM: TIMESTEP
30
ITEM: NUMBER OF ATOMS
3
ITEM: BOX BOUNDS mm mm mm
-1.0000000000000000e-03 1.0000000000000000e-03
-1.0000000000000000e-03 1.0000000000000000e-03
-1.0000000000000000e-03 1.0000000000000000e-03
ITEM: ATOMS id x y z vx vy vz
1 3.60877e-05 3.3481e-05 -0.000112159 -28.2581 -26.4867 110.722
2 -0.000250354 -0.000135472 -0.000119506 201.632 109.362 117.563
3 -0.000220792 -0.000310562 0.000205691 178.616 250.903 -203.785
ITEM: TIMESTEP
40
ITEM: NUMBER OF ATOMS
3
ITEM: BOX BOUNDS mm mm mm
-1.0000000000000000e-03 1.0000000000000000e-03
-1.0000000000000000e-03 1.0000000000000000e-03
-1.0000000000000000e-03 1.0000000000000000e-03
ITEM: ATOMS id x y z vx vy vz
1 2.27076e-06 6.96881e-06 0.000120808 33.1075 89.036 -163.377
2 -0.000126481 -7.13707e-05 0.000142148 -1555.23 -876.342 -191.072
3 -0.000125106 -0.000172018 -0.000241865 -1534.04 -2110.74 324.159
ITEM: TIMESTEP
50
ITEM: NUMBER OF ATOMS
3
ITEM: BOX BOUNDS mm mm mm
-1.0000000000000000e-03 1.0000000000000000e-03
-1.0000000000000000e-03 1.0000000000000000e-03
-1.0000000000000000e-03 1.0000000000000000e-03
ITEM: ATOMS id x y z vx vy vz
1 -1.89493e-06 -4.48112e-06 -0.000108778 34.195 97.1604 188.9
2 7.48437e-05 4.21079e-05 -0.000128104 -1724.9 -972.687 220.822
3 7.35772e-05 0.000101314 0.000215616 -1703.55 -2343.12 -374.753
ITEM: TIMESTEP
60
ITEM: NUMBER OF ATOMS
3
ITEM: BOX BOUNDS mm mm mm
-1.0000000000000000e-03 1.0000000000000000e-03
-1.0000000000000000e-03 1.0000000000000000e-03
-1.0000000000000000e-03 1.0000000000000000e-03
ITEM: ATOMS id x y z vx vy vz
1 -3.31274e-06 -1.0462e-05 9.54291e-05 1.46299 14.6881 -209.326
2 0.000190054 0.000107107 0.000111824 -311.556 -176.381 -242.559
3 0.000188175 0.000258869 -0.000190875 -311.956 -428.173 413.274
ITEM: TIMESTEP
70
ITEM: NUMBER OF ATOMS
3
ITEM: BOX BOUNDS mm mm mm
-1.0000000000000000e-03 1.0000000000000000e-03
-1.0000000000000000e-03 1.0000000000000000e-03
-1.0000000000000000e-03 1.0000000000000000e-03
ITEM: ATOMS id x y z vx vy vz
1 -1.97041e-06 -6.66201e-06 -8.34773e-05 -26.4924 -71.9196 223.611
2 0.000123069 6.94425e-05 -9.84936e-05 1258.7 709.089 260.025
3 0.000121992 0.000167729 0.000165357 1241.8 1708.84 -442.347
ITEM: TIMESTEP
80
ITEM: NUMBER OF ATOMS
3
ITEM: BOX BOUNDS mm mm mm
-1.0000000000000000e-03 1.0000000000000000e-03
-1.0000000000000000e-03 1.0000000000000000e-03
-1.0000000000000000e-03 1.0000000000000000e-03
ITEM: ATOMS id x y z vx vy vz
1 1.3697e-06 3.05058e-06 7.0564e-05 -25.7925 -84.3382 -233.682
2 -5.01747e-05 -2.82021e-05 8.34491e-05 1547.98 872.949 -270.962
3 -4.92026e-05 -6.77894e-05 -0.000142172 1533.35 2108.83 461.557
ITEM: TIMESTEP
90
ITEM: NUMBER OF ATOMS
3
ITEM: BOX BOUNDS mm mm mm
-1.0000000000000000e-03 1.0000000000000000e-03
-1.0000000000000000e-03 1.0000000000000000e-03
-1.0000000000000000e-03 1.0000000000000000e-03
ITEM: ATOMS id x y z vx vy vz
1 5.62154e-06 1.0678e-05 -5.76618e-05 -7.91537 -22.9583 233.264
2 -0.000165321 -9.33477e-05 -7.31351e-05 413.236 234.288 283.856
3 -0.000160891 -0.000221338 0.000118557 407.747 559.671 -473.037
ITEM: TIMESTEP
100
ITEM: NUMBER OF ATOMS
3
ITEM: BOX BOUNDS mm mm mm
-1.0000000000000000e-03 1.0000000000000000e-03
-1.0000000000000000e-03 1.0000000000000000e-03
-1.0000000000000000e-03 1.0000000000000000e-03
ITEM: ATOMS id x y z vx vy vz
1 3.42234e-06 7.32169e-06 4.60493e-05 38.3201 68.2199 -234.716
2 -0.000119486 -6.75688e-05 5.92123e-05 -1020.71 -575.635 -285.766
3 -0.000116852 -0.000160622 -9.75918e-05 -990.259 -1363.17 476.119
ITEM: TIMESTEP
110
ITEM: NUMBER OF ATOMS
3
ITEM: BOX BOUNDS mm mm mm
-1.0000000000000000e-03 1.0000000000000000e-03
-1.0000000000000000e-03 1.0000000000000000e-03
-1.0000000000000000e-03 1.0000000000000000e-03
ITEM: ATOMS id x y z vx vy vz
1 2.73539e-07 -1.28387e-06 -4.29246e-05 -55.7405 31.4854 264.438
2 2.88131e-05 1.61389e-05 -4.31143e-05 -1302.51 -735.89 259.812
3 2.94021e-05 4.06036e-05 7.77361e-05 -1367.61 -1880.43 -480.24
ITEM: TIMESTEP
120
ITEM: NUMBER OF ATOMS
3
ITEM: BOX BOUNDS mm mm mm
-1.0000000000000000e-03 1.0000000000000000e-03
-1.0000000000000000e-03 1.0000000000000000e-03
-1.0000000000000000e-03 1.0000000000000000e-03
ITEM: ATOMS id x y z vx vy vz
1 4.72657e-06 -3.67525e-06 3.15394e-05 -26.0589 6.38243 -259.224
2 0.000130479 7.36527e-05 3.17286e-05 -442.436 -251.158 -254.547
3 0.000136217 0.000187399 -5.92756e-05 -470.921 -646.036 470.668
ITEM: TIMESTEP
130
ITEM: NUMBER OF ATOMS
3
ITEM: BOX BOUNDS mm mm mm
-1.0000000000000000e-03 1.0000000000000000e-03
-1.0000000000000000e-03 1.0000000000000000e-03
-1.0000000000000000e-03 1.0000000000000000e-03
ITEM: ATOMS id x y z vx vy vz
1 5.84977e-06 -1.59933e-06 -2.25252e-05 28.2934 -19.6176 249.332
2 0.000103624 5.88299e-05 -2.25028e-05 741.656 419.189 240.639
3 0.00010995 0.000150837 4.01247e-05 774.622 1065.09 -448.249
ITEM: TIMESTEP
140
ITEM: NUMBER OF ATOMS
3
ITEM: BOX BOUNDS mm mm mm
-1.0000000000000000e-03 1.0000000000000000e-03
-1.0000000000000000e-03 1.0000000000000000e-03
-1.0000000000000000e-03 1.0000000000000000e-03
ITEM: ATOMS id x y z vx vy vz
1 7.67842e-07 1.16609e-06 1.33278e-05 46.9751 -28.6298 -240.87
2 -1.43254e-05 -7.96668e-06 1.26845e-05 1155.68 656.323 -228.153
3 -1.37416e-05 -1.90902e-05 -2.51293e-05 1208.17 1658.4 429.078
ITEM: TIMESTEP
150
ITEM: NUMBER OF ATOMS
3
ITEM: BOX BOUNDS mm mm mm
-1.0000000000000000e-03 1.0000000000000000e-03
-1.0000000000000000e-03 1.0000000000000000e-03
-1.0000000000000000e-03 1.0000000000000000e-03
ITEM: ATOMS id x y z vx vy vz
1 -3.84051e-06 3.09088e-06 -6.2276e-06 31.4766 -4.31946 228.104
2 -0.000109821 -6.22836e-05 -5.91177e-06 474.844 271.319 215.91
3 -0.000114225 -0.000156907 1.00481e-05 507.236 694.118 -406.174
ITEM: TIMESTEP
160
ITEM: NUMBER OF ATOMS
3
ITEM: BOX BOUNDS mm mm mm
-1.0000000000000000e-03 1.0000000000000000e-03
-1.0000000000000000e-03 1.0000000000000000e-03
-1.0000000000000000e-03 1.0000000000000000e-03
ITEM: ATOMS id x y z vx vy vz
1 2.07831e-05 2.1942e-05 1.18135e-05 147.414 146.473 -404.244
2 -0.000122692 -7.54534e-05 -1.48648e-05 -736.492 -451.236 -11.9401
3 -0.000102364 -0.000140196 1.42187e-06 -593.271 -816.414 380.705
ITEM: TIMESTEP
170
ITEM: NUMBER OF ATOMS
3
ITEM: BOX BOUNDS mm mm mm
-1.0000000000000000e-03 1.0000000000000000e-03
-1.0000000000000000e-03 1.0000000000000000e-03
-1.0000000000000000e-03 1.0000000000000000e-03
ITEM: ATOMS id x y z vx vy vz
1 -2.72837e-06 -2.05856e-06 2.76293e-08 226.766 235.299 380.906
2 3.9881e-06 2.19329e-06 1.33271e-05 -1281.98 -787.541 10.4218
3 1.37567e-06 2.36027e-06 -1.32308e-05 -1059.12 -1452.69 -358.405
ITEM: TIMESTEP
180
ITEM: NUMBER OF ATOMS
3
ITEM: BOX BOUNDS mm mm mm
-1.0000000000000000e-03 1.0000000000000000e-03
-1.0000000000000000e-03 1.0000000000000000e-03
-1.0000000000000000e-03 1.0000000000000000e-03
ITEM: ATOMS id x y z vx vy vz
1 -2.13222e-05 -2.17815e-05 -1.20519e-05 92.7231 102.281 -354.888
2 0.000115753 7.09381e-05 -1.34782e-05 -615.425 -380.87 -8.84012
3 9.46786e-05 0.000130164 2.19767e-05 -523.502 -713.486 333.498
ITEM: TIMESTEP
190
ITEM: NUMBER OF ATOMS
3
ITEM: BOX BOUNDS mm mm mm
-1.0000000000000000e-03 1.0000000000000000e-03
-1.0000000000000000e-03 1.0000000000000000e-03
-1.0000000000000000e-03 1.0000000000000000e-03
ITEM: ATOMS id x y z vx vy vz
1 -1.87159e-05 -1.978e-05 2.04563e-05 -111.098 -109.554 324.311
2 0.000112167 6.97874e-05 1.32283e-05 548.932 336.565 15.9604
3 9.4212e-05 0.000127942 -3.19188e-05 440.946 606.302 -312.818
ITEM: TIMESTEP
200
ITEM: NUMBER OF ATOMS
3
ITEM: BOX BOUNDS mm mm mm
-1.0000000000000000e-03 1.0000000000000000e-03
-1.0000000000000000e-03 1.0000000000000000e-03
-1.0000000000000000e-03 1.0000000000000000e-03
ITEM: ATOMS id x y z vx vy vz
1 5.26146e-07 -1.51851e-07 -2.94124e-05 -195.894 -202.83 -297.978
2 7.35354e-06 5.15293e-06 -1.34812e-05 1111.79 689.372 -8.96071
3 8.05187e-06 1.01022e-05 3.79687e-05 923.015 1257.23 282.298
ITEM: TIMESTEP
210
ITEM: NUMBER OF ATOMS
3
ITEM: BOX BOUNDS mm mm mm
-1.0000000000000000e-03 1.0000000000000000e-03
-1.0000000000000000e-03 1.0000000000000000e-03
-1.0000000000000000e-03 1.0000000000000000e-03
ITEM: ATOMS id x y z vx vy vz
1 1.77052e-05 1.79672e-05 3.52143e-05 -94.3358 -102.89 269.775
2 -9.43843e-05 -5.98109e-05 1.02545e-05 608.607 396.58 -3.51598
3 -7.87378e-05 -0.000105536 -4.25877e-05 532.219 698.657 -244.425
ITEM: TIMESTEP
220
ITEM: NUMBER OF ATOMS
3
ITEM: BOX BOUNDS mm mm mm
-1.0000000000000000e-03 1.0000000000000000e-03
-1.0000000000000000e-03 1.0000000000000000e-03
-1.0000000000000000e-03 1.0000000000000000e-03
ITEM: ATOMS id x y z vx vy vz
1 1.68772e-05 1.92506e-05 -4.75236e-05 83.299 86.8171 -296.87
2 -0.00010098 -6.6387e-05 -4.36191e-06 -393.77 -247.935 59.944
3 -8.67811e-05 -0.00011491 4.60855e-05 -316.526 -433.439 217.854
ITEM: TIMESTEP
230
ITEM: NUMBER OF ATOMS
3
ITEM: BOX BOUNDS mm mm mm
-1.0000000000000000e-03 1.0000000000000000e-03
-1.0000000000000000e-03 1.0000000000000000e-03
-1.0000000000000000e-03 1.0000000000000000e-03
ITEM: ATOMS id x y z vx vy vz
1 9.89735e-07 1.87199e-06 5.21749e-05 167.618 187.043 262.368
2 -1.53852e-05 -1.16873e-05 -1.86809e-07 -945.05 -625.138 -58.8899
3 -1.55734e-05 -1.86072e-05 -4.84551e-05 -808.587 -1065.87 -187.093
ITEM: TIMESTEP
240
ITEM: NUMBER OF ATOMS
3
ITEM: BOX BOUNDS mm mm mm
-1.0000000000000000e-03 1.0000000000000000e-03
-1.0000000000000000e-03 1.0000000000000000e-03
-1.0000000000000000e-03 1.0000000000000000e-03
ITEM: ATOMS id x y z vx vy vz
1 -1.34608e-05 -1.50038e-05 -5.69635e-05 83.5465 102.134 -227.62
2 7.54978e-05 4.9241e-05 -1.40728e-06 -583.381 -401.075 41.5374
3 6.38015e-05 8.50866e-05 5.21239e-05 -522.297 -670.306 172.281
ITEM: TIMESTEP
250
ITEM: NUMBER OF ATOMS
3
ITEM: BOX BOUNDS mm mm mm
-1.0000000000000000e-03 1.0000000000000000e-03
-1.0000000000000000e-03 1.0000000000000000e-03
-1.0000000000000000e-03 1.0000000000000000e-03
ITEM: ATOMS id x y z vx vy vz
1 -1.41829e-05 -1.66113e-05 5.90817e-05 -58.3563 -60.4069 196.424
2 8.95607e-05 6.04786e-05 -1.56897e-06 268.197 162.2 -38.5037
3 7.84422e-05 0.00010199 -5.37192e-05 210.72 297.008 -146.578
ITEM: TIMESTEP
260
ITEM: NUMBER OF ATOMS
3
ITEM: BOX BOUNDS mm mm mm
-1.0000000000000000e-03 1.0000000000000000e-03
-1.0000000000000000e-03 1.0000000000000000e-03
-1.0000000000000000e-03 1.0000000000000000e-03
ITEM: ATOMS id x y z vx vy vz
1 -1.7403e-06 -2.77526e-06 -6.02119e-05 -131.266 -150.171 -162.289
2 2.05331e-05 1.65302e-05 -2.38607e-06 790.696 543.124 24.467
3 2.08862e-05 2.38671e-05 5.62579e-05 696.781 893.09 128.795
ITEM: TIMESTEP
270
ITEM: NUMBER OF ATOMS
3
ITEM: BOX BOUNDS mm mm mm
-1.0000000000000000e-03 1.0000000000000000e-03
-1.0000000000000000e-03 1.0000000000000000e-03
-1.0000000000000000e-03 1.0000000000000000e-03
ITEM: ATOMS id x y z vx vy vz
1 1.08884e-05 1.20842e-05 6.09776e-05 -78.9292 -96.5461 137.442
2 -6.00922e-05 -3.98638e-05 -3.02891e-07 550.985 399.6 -24.0688
3 -5.14321e-05 -6.76536e-05 -5.69363e-05 507.521 625.841 -106.504
ITEM: TIMESTEP
280
ITEM: NUMBER OF ATOMS
3
ITEM: BOX BOUNDS mm mm mm
-1.0000000000000000e-03 1.0000000000000000e-03
-1.0000000000000000e-03 1.0000000000000000e-03
-1.0000000000000000e-03 1.0000000000000000e-03
ITEM: ATOMS id x y z vx vy vz
1 1.23302e-05 1.45175e-05 -6.1138e-05 41.9957 41.9588 -110.08
2 -7.82657e-05 -5.67501e-05 2.30342e-06 -169.193 -92.9971 21.9164
3 -7.15535e-05 -8.8147e-05 5.26793e-05 -126.301 -189.344 83.2846
ITEM: TIMESTEP
290
ITEM: NUMBER OF ATOMS
3
ITEM: BOX BOUNDS mm mm mm
-1.0000000000000000e-03 1.0000000000000000e-03
-1.0000000000000000e-03 1.0000000000000000e-03
-1.0000000000000000e-03 1.0000000000000000e-03
ITEM: ATOMS id x y z vx vy vz
1 2.19152e-06 3.59924e-06 6.49606e-05 109 133.444 96.7328
2 -2.38344e-05 -2.07617e-05 -7.37935e-06 -661.507 -473.147 -23.6963
3 -2.47719e-05 -2.68551e-05 -5.41392e-05 -596.873 -750.21 -69.9728
ITEM: TIMESTEP
300
ITEM: NUMBER OF ATOMS
3
ITEM: BOX BOUNDS mm mm mm
-1.0000000000000000e-03 1.0000000000000000e-03
-1.0000000000000000e-03 1.0000000000000000e-03
-1.0000000000000000e-03 1.0000000000000000e-03
ITEM: ATOMS id x y z vx vy vz
1 -8.65746e-06 -1.01301e-05 -6.41434e-05 70.6516 93.6088 -71.9535
2 4.68469e-05 3.12912e-05 7.71093e-06 -508.202 -397.571 16.0282
3 4.0619e-05 5.35658e-05 5.06676e-05 -486.619 -572.392 54.4994
ITEM: TIMESTEP
310
ITEM: NUMBER OF ATOMS
3
ITEM: BOX BOUNDS mm mm mm
-1.0000000000000000e-03 1.0000000000000000e-03
-1.0000000000000000e-03 1.0000000000000000e-03
-1.0000000000000000e-03 1.0000000000000000e-03
ITEM: ATOMS id x y z vx vy vz
1 -5.49573e-06 -1.0568e-05 6.26657e-05 -25.2028 -26.4579 50.2977
2 6.3052e-05 5.30408e-05 -6.99777e-06 88.4509 29.4565 -6.38682
3 6.39945e-05 7.27851e-05 -5.26937e-05 57.0926 111.116 -43.9441
ITEM: TIMESTEP
320
ITEM: NUMBER OF ATOMS
3
ITEM: BOX BOUNDS mm mm mm
-1.0000000000000000e-03 1.0000000000000000e-03
-1.0000000000000000e-03 1.0000000000000000e-03
-1.0000000000000000e-03 1.0000000000000000e-03
ITEM: ATOMS id x y z vx vy vz
1 -4.03974e-07 -2.84843e-06 -6.11045e-05 -53.7157 -92.386 -30.3983
2 2.36057e-05 2.47389e-05 6.29185e-06 511.558 408.748 -2.13643
3 2.69774e-05 2.56885e-05 4.95774e-05 507.058 598.616 33.8504
ITEM: TIMESTEP
330
ITEM: NUMBER OF ATOMS
3
ITEM: BOX BOUNDS mm mm mm
-1.0000000000000000e-03 1.0000000000000000e-03
-1.0000000000000000e-03 1.0000000000000000e-03
-1.0000000000000000e-03 1.0000000000000000e-03
ITEM: ATOMS id x y z vx vy vz
1 4.10284e-06 6.65738e-06 5.44225e-05 -19.9294 -63.16 12.4187
2 -3.27624e-05 -2.29096e-05 -5.72548e-06 423.456 395.739 9.41975
3 -3.19524e-05 -4.12278e-05 -4.62994e-05 456.749 483.187 -24.2639
ITEM: TIMESTEP
340
ITEM: NUMBER OF ATOMS
3
ITEM: BOX BOUNDS mm mm mm
-1.0000000000000000e-03 1.0000000000000000e-03
-1.0000000000000000e-03 1.0000000000000000e-03
-1.0000000000000000e-03 1.0000000000000000e-03
ITEM: ATOMS id x y z vx vy vz
1 3.80798e-06 8.99093e-06 -5.38067e-05 22.0835 19.35 1.28512
2 -5.34563e-05 -4.8522e-05 4.55858e-06 -28.5059 33.9045 -17.0743
3 -5.71864e-05 -6.17803e-05 4.46231e-05 -9.70362 -68.5462 19.1575
ITEM: TIMESTEP
350
ITEM: NUMBER OF ATOMS
3
ITEM: BOX BOUNDS mm mm mm
-1.0000000000000000e-03 1.0000000000000000e-03
-1.0000000000000000e-03 1.0000000000000000e-03
-1.0000000000000000e-03 1.0000000000000000e-03
ITEM: ATOMS id x y z vx vy vz
1 -4.95823e-07 2.51127e-06 4.83264e-05 36.9729 76.3591 -13.0964
2 -2.41411e-05 -2.83162e-05 -4.81119e-06 -404.695 -344.998 24.441
3 -2.75043e-05 -2.36426e-05 -4.17491e-05 -434.05 -491.651 -15.4963
ITEM: TIMESTEP
360
ITEM: NUMBER OF ATOMS
3
ITEM: BOX BOUNDS mm mm mm
-1.0000000000000000e-03 1.0000000000000000e-03
-1.0000000000000000e-03 1.0000000000000000e-03
-1.0000000000000000e-03 1.0000000000000000e-03
ITEM: ATOMS id x y z vx vy vz
1 -3.32652e-06 -4.49888e-06 -4.81637e-05 8.0691 36.6813 24.9926
2 1.91703e-05 1.45995e-05 1.37902e-05 -389.51 -400.214 -28.9695
3 2.92152e-05 3.26231e-05 3.03902e-05 -409.98 -386.942 8.76126
ITEM: TIMESTEP
370
ITEM: NUMBER OF ATOMS
3
ITEM: BOX BOUNDS mm mm mm
-1.0000000000000000e-03 1.0000000000000000e-03
-1.0000000000000000e-03 1.0000000000000000e-03
-1.0000000000000000e-03 1.0000000000000000e-03
ITEM: ATOMS id x y z vx vy vz
1 -2.31834e-06 -5.4966e-06 4.37121e-05 -22.527 -16.7463 -32.8783
2 4.41856e-05 4.41299e-05 -2.38133e-05 -79.1724 -102.18 12.9355
3 5.0979e-05 4.94052e-05 -1.87747e-05 38.0959 58.6137 14.6669
ITEM: TIMESTEP
380
ITEM: NUMBER OF ATOMS
3
ITEM: BOX BOUNDS mm mm mm
-1.0000000000000000e-03 1.0000000000000000e-03
-1.0000000000000000e-03 1.0000000000000000e-03
-1.0000000000000000e-03 1.0000000000000000e-03
ITEM: ATOMS id x y z vx vy vz
1 9.60419e-07 -1.36335e-06 -3.72436e-05 -30.2629 -53.8062 35.8848
2 3.08026e-05 3.24204e-05 1.02793e-05 300.202 301.961 -14.4126
3 2.03732e-05 1.83776e-05 2.36146e-05 388.795 376.498 -15.8356
ITEM: TIMESTEP
390
ITEM: NUMBER OF ATOMS
3
ITEM: BOX BOUNDS mm mm mm
-1.0000000000000000e-03 1.0000000000000000e-03
-1.0000000000000000e-03 1.0000000000000000e-03
-1.0000000000000000e-03 1.0000000000000000e-03
ITEM: ATOMS id x y z vx vy vz
1 3.27862e-06 4.23372e-06 3.52831e-05 -4.92546 -34.267 -40.9073
2 -1.34286e-05 -1.59895e-05 -1.62179e-05 399.696 395.198 29.0602
3 -2.22829e-05 -1.90031e-05 -1.85587e-05 325.636 322.204 5.96967
ITEM: TIMESTEP
400
ITEM: NUMBER OF ATOMS
3
ITEM: BOX BOUNDS mm mm mm
-1.0000000000000000e-03 1.0000000000000000e-03
-1.0000000000000000e-03 1.0000000000000000e-03
-1.0000000000000000e-03 1.0000000000000000e-03
ITEM: ATOMS id x y z vx vy vz
1 1.76819e-06 4.63149e-06 -3.13722e-05 25.6307 18.8581 37.1837
2 -4.40847e-05 -4.32157e-05 1.99463e-05 93.4854 63.3497 -32.5778
3 -3.79725e-05 -3.75548e-05 8.67129e-06 3.70092 34.2548 1.40383
ITEM: TIMESTEP
410
ITEM: NUMBER OF ATOMS
3
ITEM: BOX BOUNDS mm mm mm
-1.0000000000000000e-03 1.0000000000000000e-03
-1.0000000000000000e-03 1.0000000000000000e-03
-1.0000000000000000e-03 1.0000000000000000e-03
ITEM: ATOMS id x y z vx vy vz
1 1.26773e-05 -2.08174e-05 1.56293e-05 203.293 -213.387 -24.5668
2 -4.71377e-05 -4.83677e-06 9.90282e-06 -512.077 -39.6604 -18.3313
3 -1.67219e-05 -2.28841e-05 -2.55929e-05 -225.567 -253.657 36.8534
ITEM: TIMESTEP
420
ITEM: NUMBER OF ATOMS
3
ITEM: BOX BOUNDS mm mm mm
-1.0000000000000000e-03 1.0000000000000000e-03
-1.0000000000000000e-03 1.0000000000000000e-03
-1.0000000000000000e-03 1.0000000000000000e-03
ITEM: ATOMS id x y z vx vy vz
1 -1.24819e-05 8.66241e-06 -1.65024e-05 197.111 -263.827 23.941
2 2.27188e-05 7.25168e-07 -1.00151e-05 -610.721 -55.6231 15.983
3 1.1546e-05 1.12643e-05 2.42981e-05 -235.806 -296.367 -33.9303
ITEM: TIMESTEP
430
ITEM: NUMBER OF ATOMS
3
ITEM: BOX BOUNDS mm mm mm
-1.0000000000000000e-03 1.0000000000000000e-03
-1.0000000000000000e-03 1.0000000000000000e-03
-1.0000000000000000e-03 1.0000000000000000e-03
ITEM: ATOMS id x y z vx vy vz
1 -1.92055e-05 2.77054e-05 1.08973e-05 -10.9674 -67.7605 -9.67304
2 6.24859e-05 5.95062e-06 6.73549e-06 -124.59 -27.6155 -8.42347
3 2.52872e-05 3.13599e-05 -1.81934e-05 -29.4615 -61.1048 12.2288
ITEM: TIMESTEP
440
ITEM: NUMBER OF ATOMS
3
ITEM: BOX BOUNDS mm mm mm
-1.0000000000000000e-03 1.0000000000000000e-03
-1.0000000000000000e-03 1.0000000000000000e-03
-1.0000000000000000e-03 1.0000000000000000e-03
ITEM: ATOMS id x y z vx vy vz
1 -9.67213e-06 2.32777e-05 1.09503e-05 -175.695 214.896 -11.3943
2 4.76581e-05 3.24423e-06 -7.27868e-06 478.591 -2.01763 7.38193
3 1.09935e-05 1.99194e-05 -5.42909e-06 124.197 192.118 9.69002
ITEM: TIMESTEP
450
ITEM: NUMBER OF ATOMS
3
ITEM: BOX BOUNDS mm mm mm
-1.0000000000000000e-03 1.0000000000000000e-03
-1.0000000000000000e-03 1.0000000000000000e-03
-1.0000000000000000e-03 1.0000000000000000e-03
ITEM: ATOMS id x y z vx vy vz
1 1.22151e-05 -8.48153e-06 -1.97411e-05 -164.636 295.205 6.06631
2 -1.95912e-05 1.69253e-06 2.0552e-06 580.587 48.7171 1.19079
3 -6.06061e-06 -5.95659e-06 1.6703e-05 164.16 206.174 -12.6908
ITEM: TIMESTEP
460
ITEM: NUMBER OF ATOMS
3
ITEM: BOX BOUNDS mm mm mm
-1.0000000000000000e-03 1.0000000000000000e-03
-1.0000000000000000e-03 1.0000000000000000e-03
-1.0000000000000000e-03 1.0000000000000000e-03
ITEM: ATOMS id x y z vx vy vz
1 2.29474e-05 -3.22614e-05 1.62165e-05 18.3922 82.216 3.36461
2 -6.24086e-05 -4.83578e-06 -1.07116e-05 140.179 43.2616 16.2277
3 -1.88455e-05 -1.81968e-05 -6.88064e-06 34.7053 57.7986 -14.4467
ITEM: TIMESTEP
470
ITEM: NUMBER OF ATOMS
3
ITEM: BOX BOUNDS mm mm mm
-1.0000000000000000e-03 1.0000000000000000e-03
-1.0000000000000000e-03 1.0000000000000000e-03
-1.0000000000000000e-03 1.0000000000000000e-03
ITEM: ATOMS id x y z vx vy vz
1 1.03919e-05 -2.37415e-05 -4.26956e-06 202.393 -207.159 -13.6972
2 -4.31507e-05 -7.22416e-06 5.57154e-06 -412.123 -15.2792 -7.29783
3 -1.36675e-05 -1.30627e-05 -2.62589e-06 -125.664 -95.6047 16.1722
ITEM: TIMESTEP
480
ITEM: NUMBER OF ATOMS
3
ITEM: BOX BOUNDS mm mm mm
-1.0000000000000000e-03 1.0000000000000000e-03
-1.0000000000000000e-03 1.0000000000000000e-03
-1.0000000000000000e-03 1.0000000000000000e-03
ITEM: ATOMS id x y z vx vy vz
1 -1.43915e-05 7.63606e-06 -4.53126e-06 181.852 -291.151 18.4552
2 1.60179e-05 -1.61449e-06 5.39154e-06 -485.009 -98.0053 -14.3938
3 4.86548e-06 1.30347e-07 -1.93553e-06 -210.558 -97.98 0.412224
ITEM: TIMESTEP
490
ITEM: NUMBER OF ATOMS
3
ITEM: BOX BOUNDS mm mm mm
-1.0000000000000000e-03 1.0000000000000000e-03
-1.0000000000000000e-03 1.0000000000000000e-03
-1.0000000000000000e-03 1.0000000000000000e-03
ITEM: ATOMS id x y z vx vy vz
1 -1.81902e-05 2.84129e-05 1.10502e-05 -37.1585 -84.1349 -40.2952
2 3.9667e-05 1.67809e-05 1.58615e-05 -86.9746 -80.3984 -40.323
3 2.73733e-05 1.12477e-06 -2.84964e-05 -86.1193 -34.8409 76.512
ITEM: TIMESTEP
500
ITEM: NUMBER OF ATOMS
3
ITEM: BOX BOUNDS mm mm mm
-1.0000000000000000e-03 1.0000000000000000e-03
-1.0000000000000000e-03 1.0000000000000000e-03
-1.0000000000000000e-03 1.0000000000000000e-03
ITEM: ATOMS id x y z vx vy vz
1 1.58907e-06 1.95423e-05 -6.9408e-05 -71.4401 145.477 117.284
2 1.96291e-05 1.65463e-05 3.98621e-05 161.666 138.611 -36.1354
3 2.18993e-05 4.79395e-06 2.86931e-05 167.472 -39.7233 -77.421
ITEM: TIMESTEP
510
ITEM: NUMBER OF ATOMS
3
ITEM: BOX BOUNDS mm mm mm
-1.0000000000000000e-03 1.0000000000000000e-03
-1.0000000000000000e-03 1.0000000000000000e-03
-1.0000000000000000e-03 1.0000000000000000e-03
ITEM: ATOMS id x y z vx vy vz
1 7.50454e-06 -3.27767e-06 6.10037e-05 -22.5998 218.647 -127.552
2 -4.18187e-06 -6.22528e-06 -3.03965e-05 222.597 192.058 50.7095
3 -4.64844e-06 8.24171e-06 -3.23776e-05 251.097 17.0512 73.4978
ITEM: TIMESTEP
520
ITEM: NUMBER OF ATOMS
3
ITEM: BOX BOUNDS mm mm mm
-1.0000000000000000e-03 1.0000000000000000e-03
-1.0000000000000000e-03 1.0000000000000000e-03
-1.0000000000000000e-03 1.0000000000000000e-03
ITEM: ATOMS id x y z vx vy vz
1 3.69097e-06 -1.87421e-05 -4.80497e-05 51.9991 80.1788 116.264
2 -2.09831e-05 -1.83543e-05 1.61092e-05 82.7549 22.6135 -51.5032
3 -2.34847e-05 -1.57469e-06 3.12384e-05 83.4864 104.157 -61.7986
ITEM: TIMESTEP
530
ITEM: NUMBER OF ATOMS
3
ITEM: BOX BOUNDS mm mm mm
-1.0000000000000000e-03 1.0000000000000000e-03
-1.0000000000000000e-03 1.0000000000000000e-03
-1.0000000000000000e-03 1.0000000000000000e-03
ITEM: ATOMS id x y z vx vy vz
1 -3.3121e-06 -1.641e-05 4.19723e-05 57.0196 -99.5385 -119.817
2 -1.82517e-05 -7.09389e-06 -2.31108e-05 -109.455 -115.75 56.415
3 -1.8296e-05 -1.42977e-05 -2.075e-05 -140.05 32.7626 60.8164
ITEM: TIMESTEP
540
ITEM: NUMBER OF ATOMS
3
ITEM: BOX BOUNDS mm mm mm
-1.0000000000000000e-03 1.0000000000000000e-03
-1.0000000000000000e-03 1.0000000000000000e-03
-1.0000000000000000e-03 1.0000000000000000e-03
ITEM: ATOMS id x y z vx vy vz
1 -7.41445e-06 8.39018e-07 -3.71286e-05 2.33981 -171.196 117.979
2 3.90925e-07 5.09451e-06 1.02656e-05 -195.935 -79.2054 -45.1631
3 4.11028e-06 -8.7001e-06 2.62488e-05 -199.225 -122.095 -70.5957
ITEM: TIMESTEP
550
ITEM: NUMBER OF ATOMS
3
ITEM: BOX BOUNDS mm mm mm
-1.0000000000000000e-03 1.0000000000000000e-03
-1.0000000000000000e-03 1.0000000000000000e-03
-1.0000000000000000e-03 1.0000000000000000e-03
ITEM: ATOMS id x y z vx vy vz
1 -3.56971e-06 1.52462e-05 3.3712e-05 -60.2414 -77.3349 -123.254
2 1.94038e-05 4.15199e-06 -2.2854e-05 -108.202 13.9803 53.1556
3 1.75635e-05 1.22674e-05 -1.28064e-05 -50.7532 -144.501 68.2293
ITEM: TIMESTEP
560
ITEM: NUMBER OF ATOMS
3
ITEM: BOX BOUNDS mm mm mm
-1.0000000000000000e-03 1.0000000000000000e-03
-1.0000000000000000e-03 1.0000000000000000e-03
-1.0000000000000000e-03 1.0000000000000000e-03
ITEM: ATOMS id x y z vx vy vz
1 4.22081e-06 1.43716e-05 -3.00761e-05 -66.5845 73.8635 120.616
2 1.97967e-05 5.62697e-07 1.06741e-05 99.9138 16.2062 -57.2883
3 1.21513e-05 1.93592e-05 1.88224e-05 104.981 41.0846 -61.7935
ITEM: TIMESTEP
570
ITEM: NUMBER OF ATOMS
3
ITEM: BOX BOUNDS mm mm mm
-1.0000000000000000e-03 1.0000000000000000e-03
-1.0000000000000000e-03 1.0000000000000000e-03
-1.0000000000000000e-03 1.0000000000000000e-03
ITEM: ATOMS id x y z vx vy vz
1 7.55135e-06 -2.51669e-07 2.68083e-05 45.3186 178.811 -124.385
2 1.23249e-06 2.53216e-06 -1.87625e-05 171.792 -25.424 60.4526
3 -2.98571e-06 3.2136e-06 -1.00062e-05 122.113 168.286 62.7128
ITEM: TIMESTEP
580
ITEM: NUMBER OF ATOMS
3
ITEM: BOX BOUNDS mm mm mm
-1.0000000000000000e-03 1.0000000000000000e-03
-1.0000000000000000e-03 1.0000000000000000e-03
-1.0000000000000000e-03 1.0000000000000000e-03
ITEM: ATOMS id x y z vx vy vz
1 -4.32402e-07 -1.61094e-05 -2.48516e-05 89.1503 84.1273 120.694
2 -1.65531e-05 3.88087e-06 9.54817e-06 94.0778 37.5232 -59.7301
3 -1.02834e-05 -1.36336e-05 1.47158e-05 31.5491 82.0145 -60.0372
ITEM: TIMESTEP
590
ITEM: NUMBER OF ATOMS
3
ITEM: BOX BOUNDS mm mm mm
-1.0000000000000000e-03 1.0000000000000000e-03
-1.0000000000000000e-03 1.0000000000000000e-03
-1.0000000000000000e-03 1.0000000000000000e-03
ITEM: ATOMS id x y z vx vy vz
1 -8.71123e-06 -1.24294e-05 1.41737e-05 34.4923 -177.468 -64.7235
2 -1.74608e-05 -3.20783e-06 -1.38203e-05 -91.8803 49.0349 74.0484
3 -6.61134e-06 -1.54541e-05 -2.28806e-06 -36.4243 39.4745 -9.98072
ITEM: TIMESTEP
600
ITEM: NUMBER OF ATOMS
3
ITEM: BOX BOUNDS mm mm mm
-1.0000000000000000e-03 1.0000000000000000e-03
-1.0000000000000000e-03 1.0000000000000000e-03
-1.0000000000000000e-03 1.0000000000000000e-03
ITEM: ATOMS id x y z vx vy vz
1 -1.022e-05 2.85456e-05 -5.575e-05 -45.9987 -210.289 177.923
2 1.17295e-06 -7.22934e-06 1.21491e-05 -169.26 13.4811 -88.4581
3 9.14177e-07 -2.90324e-05 4.29724e-05 -75.1892 -78.6123 -89.0558
ITEM: TIMESTEP
610
ITEM: NUMBER OF ATOMS
3
ITEM: BOX BOUNDS mm mm mm
-1.0000000000000000e-03 1.0000000000000000e-03
-1.0000000000000000e-03 1.0000000000000000e-03
-1.0000000000000000e-03 1.0000000000000000e-03
ITEM: ATOMS id x y z vx vy vz
1 -1.02903e-06 3.28237e-05 4.6618e-05 -99.6995 108.292 -180.818
2 1.5752e-05 -6.02413e-06 -9.9829e-06 -68.0607 -44.7668 94.6435
3 6.96464e-06 -6.23813e-06 -3.85161e-05 -38.6075 -259.215 85.9875
ITEM: TIMESTEP
620
ITEM: NUMBER OF ATOMS
3
ITEM: BOX BOUNDS mm mm mm
-1.0000000000000000e-03 1.0000000000000000e-03
-1.0000000000000000e-03 1.0000000000000000e-03
-1.0000000000000000e-03 1.0000000000000000e-03
ITEM: ATOMS id x y z vx vy vz
1 8.44572e-06 6.52236e-06 -3.91987e-05 -60.2349 301.482 179.067
2 1.29427e-05 2.27282e-07 6.90157e-06 90.3513 -81.9298 -102
3 7.7729e-06 2.08988e-05 3.16045e-05 27.6111 -164.812 -77.0778
ITEM: TIMESTEP
630
ITEM: NUMBER OF ATOMS
3
ITEM: BOX BOUNDS mm mm mm
-1.0000000000000000e-03 1.0000000000000000e-03
-1.0000000000000000e-03 1.0000000000000000e-03
-1.0000000000000000e-03 1.0000000000000000e-03
ITEM: ATOMS id x y z vx vy vz
1 9.64296e-06 -2.36604e-05 3.17682e-05 33.3913 197.77 -178.94
2 -2.55209e-06 8.41039e-06 -5.99505e-06 134.964 -49.8517 108.465
3 2.35441e-06 2.42025e-05 -2.75818e-05 78.1313 85.8156 70.6591
ITEM: TIMESTEP
640
ITEM: NUMBER OF ATOMS
3
ITEM: BOX BOUNDS mm mm mm
-1.0000000000000000e-03 1.0000000000000000e-03
-1.0000000000000000e-03 1.0000000000000000e-03
-1.0000000000000000e-03 1.0000000000000000e-03
ITEM: ATOMS id x y z vx vy vz
1 2.04692e-06 -2.97568e-05 -2.57152e-05 90.8321 -81.2251 170.845
2 -1.30107e-05 1.08673e-05 4.09427e-06 36.2585 45.2128 -109.536
3 -6.23908e-06 2.57267e-06 2.08495e-05 68.0271 221.035 -61.644
ITEM: TIMESTEP
650
ITEM: NUMBER OF ATOMS
3
ITEM: BOX BOUNDS mm mm mm
-1.0000000000000000e-03 1.0000000000000000e-03
-1.0000000000000000e-03 1.0000000000000000e-03
-1.0000000000000000e-03 1.0000000000000000e-03
ITEM: ATOMS id x y z vx vy vz
1 -7.44305e-06 -7.5798e-06 2.23081e-05 74.4817 -250.925 -183.045
2 -7.34194e-06 2.02922e-06 -6.9435e-06 -74.3623 123.212 114.38
3 -1.12079e-05 -1.91015e-05 -1.70899e-05 -29.0157 100.312 69.1286
ITEM: TIMESTEP
660
ITEM: NUMBER OF ATOMS
3
ITEM: BOX BOUNDS mm mm mm
-1.0000000000000000e-03 1.0000000000000000e-03
-1.0000000000000000e-03 1.0000000000000000e-03
-1.0000000000000000e-03 1.0000000000000000e-03
ITEM: ATOMS id x y z vx vy vz
1 -1.04624e-05 1.86987e-05 -1.72871e-05 -18.6804 -179.179 175.717
2 3.04187e-06 -1.17798e-05 8.25904e-06 -75.0347 85.3283 -108.267
3 -3.07648e-06 -1.6877e-05 8.17054e-06 -113.51 -102.653 -68.0189
ITEM: TIMESTEP
670
ITEM: NUMBER OF ATOMS
3
ITEM: BOX BOUNDS mm mm mm
-1.0000000000000000e-03 1.0000000000000000e-03
-1.0000000000000000e-03 1.0000000000000000e-03
-1.0000000000000000e-03 1.0000000000000000e-03
ITEM: ATOMS id x y z vx vy vz
1 -4.35511e-06 2.48019e-05 1.1312e-05 -93.3881 49.6725 -168.511
2 6.57871e-06 -1.55069e-05 -1.10114e-05 -11.2677 -58.4176 101.501
3 1.08862e-05 3.1324e-06 -1.93847e-06 -77.3134 -163.809 67.6648
ITEM: TIMESTEP
680
ITEM: NUMBER OF ATOMS
3
ITEM: BOX BOUNDS mm mm mm
-1.0000000000000000e-03 1.0000000000000000e-03
-1.0000000000000000e-03 1.0000000000000000e-03
-1.0000000000000000e-03 1.0000000000000000e-03
ITEM: ATOMS id x y z vx vy vz
1 6.31632e-06 7.48552e-06 -7.67464e-06 -80.9626 208.713 154.18
2 2.60638e-06 2.21613e-06 4.93249e-06 17.9972 -154.596 -67.4021
3 1.37728e-05 1.18156e-05 1.79715e-06 69.2304 -48.1759 -87.499
ITEM: TIMESTEP
690
ITEM: NUMBER OF ATOMS
3
ITEM: BOX BOUNDS mm mm mm
-1.0000000000000000e-03 1.0000000000000000e-03
-1.0000000000000000e-03 1.0000000000000000e-03