ITEM: TIMESTEP
0
ITEM: NUMBER OF ATOMS
3
ITEM: BOX BOUNDS mm mm mm
-1.0000000000000000e-03 1.0000000000000000e-03
-1.0000000000000000e-03 1.0000000000000000e-03
-1.0000000000000000e-03 1.0000000000000000e-03
ITEM: ATOMS id x y z vx vy vz
1 1.18933e-05 0.000117787 5.32182e-05 0 0 0
2 0.000315633 8.67667e-05 -0.000756918 0 0 0
3 0.00057231 0.000557952 9.62061e-06 0 0 0
ITEM: TIMESTEP
10
ITEM: NUMBER OF ATOMS
3
ITEM: BOX BOUNDS mm mm mm
-1.0000000000000000e-03 1.0000000000000000e-03
-1.0000000000000000e-03 1.0000000000000000e-03
-1.0000000000000000e-03 1.0000000000000000e-03
ITEM: ATOMS id x y z vx vy vz
1 -2.58133e-06 -2.40904e-05 -1.14638e-05 49.2345 480.944 -89.5091
2 -6.42656e-05 -1.77944e-05 0.000138948 1287.6 354.467 1239.23
3 -0.000116372 -0.000113458 -3.39813e-06 2334.21 2275.66 -18.0193
ITEM: TIMESTEP
20
ITEM: NUMBER OF ATOMS
3
ITEM: BOX BOUNDS mm mm mm
-1.0000000000000000e-03 1.0000000000000000e-03
-1.0000000000000000e-03 1.0000000000000000e-03
-1.0000000000000000e-03 1.0000000000000000e-03
ITEM: ATOMS id x y z vx vy vz
1 -1.02467e-05 -9.86133e-05 -4.49645e-05 -18.9065 -186.281 38.9631
2 -0.000263732 -7.27205e-05 0.00060172 -498.968 -137.307 -540.555
3 -0.000477972 -0.000465987 -1.01361e-05 -904.588 -881.895 7.88846
ITEM: TIMESTEP
30
ITEM: NUMBER OF ATOMS
3
ITEM: BOX BOUNDS mm mm mm
-1.0000000000000000e-03 1.0000000000000000e-03
-1.0000000000000000e-03 1.0000000000000000e-03
-1.0000000000000000e-03 1.0000000000000000e-03
ITEM: ATOMS id x y z vx vy vz
1 5.91794e-06 5.97389e-05 2.65033e-05 -37.7419 -367.245 61.7256
2 0.000160265 4.39795e-05 -0.000388052 -982.933 -270.626 -853.486
3 0.00029065 0.000283359 4.26584e-06 -1781.8 -1737.12 12.4111
ITEM: TIMESTEP
40
ITEM: NUMBER OF ATOMS
3
ITEM: BOX BOUNDS mm mm mm
-1.0000000000000000e-03 1.0000000000000000e-03
-1.0000000000000000e-03 1.0000000000000000e-03
-1.0000000000000000e-03 1.0000000000000000e-03
ITEM: ATOMS id x y z vx vy vz
1 6.76028e-06 6.66435e-05 2.48426e-05 31.776 312.052 -61.0748
2 0.000178533 4.90499e-05 -0.000362667 835.565 229.912 847.926
3 0.000323723 0.000315607 3.88e-06 1514.63 1476.67 -12.3578
ITEM: TIMESTEP
50
ITEM: NUMBER OF ATOMS
3
ITEM: BOX BOUNDS mm mm mm
-1.0000000000000000e-03 1.0000000000000000e-03
-1.0000000000000000e-03 1.0000000000000000e-03
-1.0000000000000000e-03 1.0000000000000000e-03
ITEM: ATOMS id x y z vx vy vz
1 -8.39976e-06 -8.06817e-05 -3.72865e-05 22.6005 214.969 -27.757
2 -0.000215698 -5.94736e-05 0.000496491 574.554 158.342 380.199
3 -0.00039085 -0.000381061 -8.62727e-06 1041.37 1015.28 -5.53802
ITEM: TIMESTEP
60
ITEM: NUMBER OF ATOMS
3
ITEM: BOX BOUNDS mm mm mm
-1.0000000000000000e-03 1.0000000000000000e-03
-1.0000000000000000e-03 1.0000000000000000e-03
-1.0000000000000000e-03 1.0000000000000000e-03
ITEM: ATOMS id x y z vx vy vz
1 -3.40595e-06 -3.01007e-05 -8.84458e-06 -38.1573 -368.373 65.694
2 -8.00043e-05 -2.21835e-05 9.89821e-05 -985.059 -271.115 -911.487
3 -0.000144816 -0.0001412 -2.76508e-06 -1785.11 -1740.46 13.3236
ITEM: TIMESTEP
70
ITEM: NUMBER OF ATOMS
3
ITEM: BOX BOUNDS mm mm mm
-1.0000000000000000e-03 1.0000000000000000e-03
-1.0000000000000000e-03 1.0000000000000000e-03
-1.0000000000000000e-03 1.0000000000000000e-03
ITEM: ATOMS id x y z vx vy vz
1 8.74348e-06 8.5059e-05 3.34707e-05 -6.43908 -54.2771 -3.98736
2 0.000227541 6.25103e-05 -0.000482811 -143.894 -39.8795 63.7528
3 0.000412379 0.000402078 5.6076e-06 -260.561 -254.061 -1.13553
ITEM: TIMESTEP
80
ITEM: NUMBER OF ATOMS
3
ITEM: BOX BOUNDS mm mm mm
-1.0000000000000000e-03 1.0000000000000000e-03
-1.0000000000000000e-03 1.0000000000000000e-03
-1.0000000000000000e-03 1.0000000000000000e-03
ITEM: ATOMS id x y z vx vy vz
1 -5.27367e-07 -5.70462e-06 -9.676e-06 38.5434 358.27 -56.1884
2 -1.52726e-05 -4.23604e-06 0.000120637 955.08 262.993 773.631
3 -2.75567e-05 -2.68738e-05 -3.37076e-06 1729.59 1686.55 -11.1403
ITEM: TIMESTEP
90
ITEM: NUMBER OF ATOMS
3
ITEM: BOX BOUNDS mm mm mm
-1.0000000000000000e-03 1.0000000000000000e-03
-1.0000000000000000e-03 1.0000000000000000e-03
-1.0000000000000000e-03 1.0000000000000000e-03
ITEM: ATOMS id x y z vx vy vz
1 -8.60454e-06 -7.61711e-05 -2.86855e-05 -8.74547 -88.8306 27.0518
2 -0.000202218 -5.58121e-05 0.000368801 -237.828 -65.1201 -393.843
3 -0.000365823 -0.000356773 -6.39673e-06 -430.643 -419.965 6.72482
ITEM: TIMESTEP
100
ITEM: NUMBER OF ATOMS
3
ITEM: BOX BOUNDS mm mm mm
-1.0000000000000000e-03 1.0000000000000000e-03
-1.0000000000000000e-03 1.0000000000000000e-03
-1.0000000000000000e-03 1.0000000000000000e-03
ITEM: ATOMS id x y z vx vy vz
1 3.59963e-06 3.44521e-05 1.66342e-05 -35.0261 -295.365 37.3433
2 9.17755e-05 2.50482e-05 -0.0002701 -780.252 -214.981 -508.261
3 0.000165994 0.000161929 3.68276e-06 -1409.69 -1375.23 7.21261
ITEM: TIMESTEP
110
ITEM: NUMBER OF ATOMS
3
ITEM: BOX BOUNDS mm mm mm
-1.0000000000000000e-03 1.0000000000000000e-03
-1.0000000000000000e-03 1.0000000000000000e-03
-1.0000000000000000e-03 1.0000000000000000e-03
ITEM: ATOMS id x y z vx vy vz
1 7.06034e-06 5.66347e-05 1.66041e-05 23.1534 196.706 -36.1349
2 0.000148841 4.0925e-05 -0.00020941 518.858 142.422 567.938
3 0.000268576 0.000262097 -9.12458e-07 936.26 913.651 -12.6803
ITEM: TIMESTEP
120
ITEM: NUMBER OF ATOMS
3
ITEM: BOX BOUNDS mm mm mm
-1.0000000000000000e-03 1.0000000000000000e-03
-1.0000000000000000e-03 1.0000000000000000e-03
-1.0000000000000000e-03 1.0000000000000000e-03
ITEM: ATOMS id x y z vx vy vz
1 5.83828e-05 6.78215e-06 0.000209547 -207.728 -22.4091 294.347
2 -0.000141695 -3.90438e-05 0.000325878 511.728 141.388 199.15
3 -0.000320477 -0.000310005 -0.000240615 1156.43 1118.68 -312.562
ITEM: TIMESTEP
130
ITEM: NUMBER OF ATOMS
3
ITEM: BOX BOUNDS mm mm mm
-1.0000000000000000e-03 1.0000000000000000e-03
-1.0000000000000000e-03 1.0000000000000000e-03
-1.0000000000000000e-03 1.0000000000000000e-03
ITEM: ATOMS id x y z vx vy vz
1 3.25841e-05 3.24302e-06 0.000108722 277.179 32.4573 -418.994
2 -8.14198e-05 -2.26565e-05 3.89072e-05 -671.75 -184.694 -587.042
3 -0.000183799 -0.000177807 -0.000115505 -1519.71 -1470.04 470.587
ITEM: TIMESTEP
140
ITEM: NUMBER OF ATOMS
3
ITEM: BOX BOUNDS mm mm mm
-1.0000000000000000e-03 1.0000000000000000e-03
-1.0000000000000000e-03 1.0000000000000000e-03
-1.0000000000000000e-03 1.0000000000000000e-03
ITEM: ATOMS id x y z vx vy vz
1 -6.63229e-05 -7.81978e-06 -0.000234473 82.2129 7.81849 -75.3828
2 0.000160548 4.40558e-05 -0.000307014 -207.379 -57.6955 80.8527
3 0.000363323 0.000351448 0.000258838 -468.615 -453.33 69.3399
ITEM: TIMESTEP
150
ITEM: NUMBER OF ATOMS
3
ITEM: BOX BOUNDS mm mm mm
-1.0000000000000000e-03 1.0000000000000000e-03
-1.0000000000000000e-03 1.0000000000000000e-03
-1.0000000000000000e-03 1.0000000000000000e-03
ITEM: ATOMS id x y z vx vy vz
1 -4.37665e-06 -2.67271e-07 5.00375e-06 -286.838 -33.2379 401.727
2 1.18634e-05 3.30308e-06 9.53814e-05 695.287 191.354 480.608
3 2.70418e-05 2.61545e-05 -1.45837e-05 1569.05 1517.74 -444.242
ITEM: TIMESTEP
160
ITEM: NUMBER OF ATOMS
3
ITEM: BOX BOUNDS mm mm mm
-1.0000000000000000e-03 1.0000000000000000e-03
-1.0000000000000000e-03 1.0000000000000000e-03
-1.0000000000000000e-03 1.0000000000000000e-03
ITEM: ATOMS id x y z vx vy vz
1 6.23818e-05 7.05919e-06 0.000201291 36.0273 5.7961 -111.441
2 -0.000151927 -4.19509e-05 0.000224897 -79.4726 -21.2227 -278.701
3 -0.000342683 -0.000331477 -0.000224578 -178.577 -172.729 133.006
ITEM: TIMESTEP
170
ITEM: NUMBER OF ATOMS
3
ITEM: BOX BOUNDS mm mm mm
-1.0000000000000000e-03 1.0000000000000000e-03
-1.0000000000000000e-03 1.0000000000000000e-03
-1.0000000000000000e-03 1.0000000000000000e-03
ITEM: ATOMS id x y z vx vy vz
1 -2.06171e-05 -2.88297e-06 -9.52881e-05 248.341 28.3309 -303.977
2 4.76455e-05 1.28494e-05 -0.000185314 -604.274 -166.532 -301.591
3 0.000107408 0.000103892 0.000107682 -1364.01 -1319.38 332.714
ITEM: TIMESTEP
180
ITEM: NUMBER OF ATOMS
3
ITEM: BOX BOUNDS mm mm mm
-1.0000000000000000e-03 1.0000000000000000e-03
-1.0000000000000000e-03 1.0000000000000000e-03
-1.0000000000000000e-03 1.0000000000000000e-03
ITEM: ATOMS id x y z vx vy vz
1 -4.95771e-05 -5.73748e-06 -0.000137856 -130.501 -16.6387 231.011
2 0.000120185 3.30318e-05 -0.000120594 307.628 84.0165 376.352
3 0.00027105 0.000262177 0.000147308 690.309 667.741 -262.103
ITEM: TIMESTEP
190
ITEM: NUMBER OF ATOMS
3
ITEM: BOX BOUNDS mm mm mm
-1.0000000000000000e-03 1.0000000000000000e-03
-1.0000000000000000e-03 1.0000000000000000e-03
-1.0000000000000000e-03 1.0000000000000000e-03
ITEM: ATOMS id x y z vx vy vz
1 3.7942e-05 4.58673e-06 0.000141168 -177.289 -19.6812 165.734
2 -9.0582e-05 -2.49111e-05 0.00021221 433.895 119.935 101.653
3 -0.000203234 -0.00019659 -0.000162216 978.72 946.638 -178.304
ITEM: TIMESTEP
200
ITEM: NUMBER OF ATOMS
3
ITEM: BOX BOUNDS mm mm mm
-1.0000000000000000e-03 1.0000000000000000e-03
-1.0000000000000000e-03 1.0000000000000000e-03
-1.0000000000000000e-03 1.0000000000000000e-03
ITEM: ATOMS id x y z vx vy vz
1 3.01333e-05 3.08959e-06 5.60539e-05 188.549 23.0897 -274.485
2 -7.49896e-05 -2.08964e-05 1.07298e-05 -449.252 -123.148 -376.253
3 -0.000169317 -0.000163768 -6.19863e-05 -1008.8 -975.8 308.271
ITEM: TIMESTEP
210
ITEM: NUMBER OF ATOMS
3
ITEM: BOX BOUNDS mm mm mm
-1.0000000000000000e-03 1.0000000000000000e-03
-1.0000000000000000e-03 1.0000000000000000e-03
-1.0000000000000000e-03 1.0000000000000000e-03
ITEM: ATOMS id x y z vx vy vz
1 -4.68235e-05 -5.7852e-06 -0.000151195 88.3827 8.86541 -25.0652
2 0.00011149 3.04841e-05 -0.000194888 -222.052 -61.8618 74.0304
3 0.00025068 0.000242473 0.0001665 -503.746 -487.189 22.3053
ITEM: TIMESTEP
220
ITEM: NUMBER OF ATOMS
3
ITEM: BOX BOUNDS mm mm mm
-1.0000000000000000e-03 1.0000000000000000e-03
-1.0000000000000000e-03 1.0000000000000000e-03
-1.0000000000000000e-03 1.0000000000000000e-03
ITEM: ATOMS id x y z vx vy vz
1 -9.52697e-06 -8.67828e-07 1.40879e-05 -207.153 -24.6776 251.61
2 2.48445e-05 6.94474e-06 7.19588e-05 496.997 136.701 299.355
3 5.73089e-05 5.53999e-05 -2.12386e-05 1115.74 1079.16 -280.997
ITEM: TIMESTEP
230
ITEM: NUMBER OF ATOMS
3
ITEM: BOX BOUNDS mm mm mm
-1.0000000000000000e-03 1.0000000000000000e-03
-1.0000000000000000e-03 1.0000000000000000e-03
-1.0000000000000000e-03 1.0000000000000000e-03
ITEM: ATOMS id x y z vx vy vz
1 4.63071e-05 5.31627e-06 0.000123168 0.583233 1.81635 -88.9141
2 -0.000112 -3.09526e-05 0.000137422 9.7854 3.67381 -194.599
3 -0.000251407 -0.000243165 -0.000140425 28.4766 27.4297 102.928
ITEM: TIMESTEP
240
ITEM: NUMBER OF ATOMS
3
ITEM: BOX BOUNDS mm mm mm
-1.0000000000000000e-03 1.0000000000000000e-03
-1.0000000000000000e-03 1.0000000000000000e-03
-1.0000000000000000e-03 1.0000000000000000e-03
ITEM: ATOMS id x y z vx vy vz
1 -9.84319e-06 -1.70103e-06 -6.91379e-05 188.678 21.8052 -181.317
2 2.0477e-05 5.28269e-06 -0.000126406 -457.256 -126.11 -179.423
3 4.45203e-05 4.3088e-05 7.66576e-05 -1029.94 -996.14 202.265
ITEM: TIMESTEP
250
ITEM: NUMBER OF ATOMS
3
ITEM: BOX BOUNDS mm mm mm
-1.0000000000000000e-03 1.0000000000000000e-03
-1.0000000000000000e-03 1.0000000000000000e-03
-1.0000000000000000e-03 1.0000000000000000e-03
ITEM: ATOMS id x y z vx vy vz
1 -3.86224e-05 -4.50339e-06 -8.02848e-05 -75.2654 -10.5688 157.33
2 9.37806e-05 2.58067e-05 -6.97744e-05 169.369 45.6024 249.13
3 0.00021201 0.000205041 8.69223e-05 372.256 360.189 -178.464
ITEM: TIMESTEP
260
ITEM: NUMBER OF ATOMS
3
ITEM: BOX BOUNDS mm mm mm
-1.0000000000000000e-03 1.0000000000000000e-03
-1.0000000000000000e-03 1.0000000000000000e-03
-1.0000000000000000e-03 1.0000000000000000e-03
ITEM: ATOMS id x y z vx vy vz
1 2.38781e-05 3.01226e-06 9.27199e-05 -142.095 -15.3852 89.444
2 -5.56119e-05 -1.52219e-05 0.000138614 351.545 97.7506 50.6897
3 -0.000122956 -0.000118956 -0.000108648 796.056 769.763 -100.391
ITEM: TIMESTEP
270
ITEM: NUMBER OF ATOMS
3
ITEM: BOX BOUNDS mm mm mm
-1.0000000000000000e-03 1.0000000000000000e-03
-1.0000000000000000e-03 1.0000000000000000e-03
-1.0000000000000000e-03 1.0000000000000000e-03
ITEM: ATOMS id x y z vx vy vz
1 2.50291e-05 2.39442e-06 2.6341e-05 123.986 15.7377 -174.879
2 -6.39861e-05 -1.80036e-05 -1.33697e-06 -290.639 -79.295 -243.617
3 -0.0001463 -0.000141461 -3.25021e-05 -647.795 -626.656 200.681
ITEM: TIMESTEP
280
ITEM: NUMBER OF ATOMS
3
ITEM: BOX BOUNDS mm mm mm
-1.0000000000000000e-03 1.0000000000000000e-03
-1.0000000000000000e-03 1.0000000000000000e-03
-1.0000000000000000e-03 1.0000000000000000e-03
ITEM: ATOMS id x y z vx vy vz
1 -3.19774e-05 -4.08075e-06 -9.48717e-05 79.0994 7.2756 -0.991477
2 7.52425e-05 2.04838e-05 -0.000125608 -206.136 -58.1322 60.1557
3 0.00016851 0.000162997 0.00010647 -476.384 -460.519 1.03721
ITEM: TIMESTEP
290
ITEM: NUMBER OF ATOMS
3
ITEM: BOX BOUNDS mm mm mm
-1.0000000000000000e-03 1.0000000000000000e-03
-1.0000000000000000e-03 1.0000000000000000e-03
-1.0000000000000000e-03 1.0000000000000000e-03
ITEM: ATOMS id x y z vx vy vz
1 -1.01012e-05 -6.86549e-07 1.65973e-05 -141.855 -16.0329 152.529
2 2.84972e-05 8.14736e-06 5.12649e-05 344.549 95.0048 190.956
3 6.78522e-05 6.556e-05 -2.08874e-05 774.217 748.923 -178.278
ITEM: TIMESTEP
300
ITEM: NUMBER OF ATOMS
3
ITEM: BOX BOUNDS mm mm mm
-1.0000000000000000e-03 1.0000000000000000e-03
-1.0000000000000000e-03 1.0000000000000000e-03
-1.0000000000000000e-03 1.0000000000000000e-03
ITEM: ATOMS id x y z vx vy vz
1 3.2432e-05 3.43111e-06 7.20575e-05 -13.2956 1.09911 -68.7582
2 -8.00247e-05 -2.22405e-05 8.66491e-05 52.3667 16.2155 -132.827
3 -0.000180196 -0.000174304 -8.84056e-05 134.399 129.694 76.4914
ITEM: TIMESTEP
310
ITEM: NUMBER OF ATOMS
3
ITEM: BOX BOUNDS mm mm mm
-1.0000000000000000e-03 1.0000000000000000e-03
-1.0000000000000000e-03 1.0000000000000000e-03
-1.0000000000000000e-03 1.0000000000000000e-03
ITEM: ATOMS id x y z vx vy vz
1 -4.25846e-06 -1.22235e-06 -4.724e-05 126.637 12.4413 -101.112
2 5.0341e-06 8.41689e-07 -8.75671e-05 -326.686 -91.075 -113.163
3 7.42411e-06 7.25833e-06 5.33807e-05 -759.054 -734.17 123.665
ITEM: TIMESTEP
320
ITEM: NUMBER OF ATOMS
3
ITEM: BOX BOUNDS mm mm mm
-1.0000000000000000e-03 1.0000000000000000e-03
-1.0000000000000000e-03 1.0000000000000000e-03
-1.0000000000000000e-03 1.0000000000000000e-03
ITEM: ATOMS id x y z vx vy vz
1 -2.63699e-05 -2.58226e-06 -4.27215e-05 -41.5427 -7.0447 103.398
2 6.87954e-05 1.91651e-05 -4.44239e-05 82.6952 21.0662 166.599
3 0.000161335 0.000156025 5.14862e-05 171.104 165.858 -120.435
ITEM: TIMESTEP
330
ITEM: NUMBER OF ATOMS
3
ITEM: BOX BOUNDS mm mm mm
-1.0000000000000000e-03 1.0000000000000000e-03
-1.0000000000000000e-03 1.0000000000000000e-03
-1.0000000000000000e-03 1.0000000000000000e-03
ITEM: ATOMS id x y z vx vy vz
1 1.37476e-05 1.5963e-06 6.15015e-05 -92.1793 -5.02512 44.0092
2 -3.20186e-05 -8.58693e-06 9.38136e-05 264.464 74.928 31.659
3 -6.9038e-05 -6.70718e-05 -7.75662e-05 621.489 602.79 -61.3336
ITEM: TIMESTEP
340
ITEM: NUMBER OF ATOMS
3
ITEM: BOX BOUNDS mm mm mm
-1.0000000000000000e-03 1.0000000000000000e-03
-1.0000000000000000e-03 1.0000000000000000e-03
-1.0000000000000000e-03 1.0000000000000000e-03
ITEM: ATOMS id x y z vx vy vz
1 6.10826e-06 -1.6724e-06 6.28853e-06 40.9369 1.41289 -122.478
2 -3.98049e-05 -1.2318e-05 3.42802e-07 -145.658 -41.2104 -154.77
3 -0.0001197 -0.000116079 -1.86589e-05 -395.865 -384.43 139.491
ITEM: TIMESTEP
350
ITEM: NUMBER OF ATOMS
3
ITEM: BOX BOUNDS mm mm mm
-1.0000000000000000e-03 1.0000000000000000e-03
-1.0000000000000000e-03 1.0000000000000000e-03
-1.0000000000000000e-03 1.0000000000000000e-03
ITEM: ATOMS id x y z vx vy vz
1 -1.05954e-05 -2.64621e-07 -6.23151e-05 14.5024 -7.33063 22.0572
2 3.9471e-05 1.12107e-05 -8.31983e-05 -131.661 -41.4701 31.6073
3 0.000109058 0.000105876 7.29919e-05 -414.214 -401.518 -6.09396
ITEM: TIMESTEP
360
ITEM: NUMBER OF ATOMS
3
ITEM: BOX BOUNDS mm mm mm
-1.0000000000000000e-03 1.0000000000000000e-03
-1.0000000000000000e-03 1.0000000000000000e-03
-1.0000000000000000e-03 1.0000000000000000e-03
ITEM: ATOMS id x y z vx vy vz
1 3.85011e-06 2.4414e-06 2.58582e-05 -14.9801 5.93855 108.104
2 1.50647e-05 5.42743e-06 2.55635e-05 154.064 47.3392 118.387
3 6.67774e-05 6.46808e-05 -1.85869e-05 523.381 508.137 -126.154
ITEM: TIMESTEP
370
ITEM: NUMBER OF ATOMS
3
ITEM: BOX BOUNDS mm mm mm
-1.0000000000000000e-03 1.0000000000000000e-03
-1.0000000000000000e-03 1.0000000000000000e-03
-1.0000000000000000e-03 1.0000000000000000e-03
ITEM: ATOMS id x y z vx vy vz
1 3.84394e-06 -1.34902e-06 4.29107e-05 32.4406 12.9808 -86.4391
2 -3.78577e-05 -1.20016e-05 5.95939e-05 20.631 10.8942 -58.6579
3 -0.000126132 -0.000122438 -6.25037e-05 176.13 170.365 59.4442
ITEM: TIMESTEP
380
ITEM: NUMBER OF ATOMS
3
ITEM: BOX BOUNDS mm mm mm
-1.0000000000000000e-03 1.0000000000000000e-03
-1.0000000000000000e-03 1.0000000000000000e-03
-1.0000000000000000e-03 1.0000000000000000e-03
ITEM: ATOMS id x y z vx vy vz
1 -8.98792e-06 -3.02206e-06 -5.67841e-05 7.01121 -7.94382 -56.027
2 3.943e-06 5.74905e-08 -3.85341e-05 -154.224 -49.6031 -80.4522
3 -1.23893e-05 -1.18816e-05 3.95591e-05 -546.294 -530.174 85.6754
ITEM: TIMESTEP
390
ITEM: NUMBER OF ATOMS
3
ITEM: BOX BOUNDS mm mm mm
-1.0000000000000000e-03 1.0000000000000000e-03
-1.0000000000000000e-03 1.0000000000000000e-03
-1.0000000000000000e-03 1.0000000000000000e-03
ITEM: ATOMS id x y z vx vy vz
1 -6.416e-05 -2.89236e-05 4.01334e-05 -266.315 -118.588 407.919
2 9.63918e-05 4.14777e-05 -9.536e-05 273.813 117.989 -222.47
3 0.000119667 0.000116103 3.49958e-05 51.2237 50.3627 -87.951
ITEM: TIMESTEP
400
ITEM: NUMBER OF ATOMS
3
ITEM: BOX BOUNDS mm mm mm
-1.0000000000000000e-03 1.0000000000000000e-03
-1.0000000000000000e-03 1.0000000000000000e-03
-1.0000000000000000e-03 1.0000000000000000e-03
ITEM: ATOMS id x y z vx vy vz
1 6.99899e-05 3.11385e-05 0.000198125 -211.807 -95.3944 -170.102
2 -7.84676e-05 -3.38549e-05 -9.70784e-05 342.952 148.162 209.232
3 -3.5381e-05 -3.45235e-05 -5.26039e-05 479.436 464.676 -37.0519
ITEM: TIMESTEP
410
ITEM: NUMBER OF ATOMS
3
ITEM: BOX BOUNDS mm mm mm
-1.0000000000000000e-03 1.0000000000000000e-03
-1.0000000000000000e-03 1.0000000000000000e-03
-1.0000000000000000e-03 1.0000000000000000e-03
ITEM: ATOMS id x y z vx vy vz
1 3.09982e-05 1.39757e-05 -0.000124935 324.949 145.331 -285.419
2 -5.78349e-05 -2.51379e-05 0.00012278 -382.174 -164.108 105.172
3 -9.59947e-05 -9.30041e-05 -1.06363e-05 -232.363 -226.638 93.6175
ITEM: TIMESTEP
420
ITEM: NUMBER OF ATOMS
3
ITEM: BOX BOUNDS mm mm mm
-1.0000000000000000e-03 1.0000000000000000e-03
-1.0000000000000000e-03 1.0000000000000000e-03
-1.0000000000000000e-03 1.0000000000000000e-03
ITEM: ATOMS id x y z vx vy vz
1 -7.62529e-05 -3.42344e-05 -0.000123356 67.0092 30.7611 274.002
2 9.35174e-05 3.9965e-05 2.92983e-05 -164.341 -72.6346 -229.605
3 6.91797e-05 6.74563e-05 4.76352e-05 -348.303 -335.785 -8.38434
ITEM: TIMESTEP
430
ITEM: NUMBER OF ATOMS
3
ITEM: BOX BOUNDS mm mm mm
-1.0000000000000000e-03 1.0000000000000000e-03
-1.0000000000000000e-03 1.0000000000000000e-03
-1.0000000000000000e-03 1.0000000000000000e-03
ITEM: ATOMS id x y z vx vy vz
1 8.98551e-07 1.60811e-07 0.000161747 -325.971 -146.312 132.349
2 1.60385e-05 7.40391e-06 -0.000125611 415.006 178.36 6.04889
3 6.07433e-05 5.81951e-05 -1.40305e-05 347.623 338.004 -77.9639
ITEM: TIMESTEP
440
ITEM: NUMBER OF ATOMS
3
ITEM: BOX BOUNDS mm mm mm
-1.0000000000000000e-03 1.0000000000000000e-03
-1.0000000000000000e-03 1.0000000000000000e-03
-1.0000000000000000e-03 1.0000000000000000e-03
ITEM: ATOMS id x y z vx vy vz
1 6.96585e-05 3.12176e-05 3.56284e-05 64.6435 28.4042 -300.328
2 -9.2301e-05 -3.98013e-05 2.42561e-05 -10.9206 -1.40665 201.991
3 -8.73897e-05 -8.47357e-05 -3.81439e-05 184.453 174.848 40.2762
ITEM: TIMESTEP
450
ITEM: NUMBER OF ATOMS
3
ITEM: BOX BOUNDS mm mm mm
-1.0000000000000000e-03 1.0000000000000000e-03
-1.0000000000000000e-03 1.0000000000000000e-03
-1.0000000000000000e-03 1.0000000000000000e-03
ITEM: ATOMS id x y z vx vy vz
1 -2.8223e-05 -1.2643e-05 -0.000161523 272.279 122.875 13.9994
2 2.08552e-05 8.10261e-06 9.70154e-05 -373.363 -161.315 -91.866
3 -2.21174e-05 -2.05185e-05 2.61581e-05 -389.696 -377.478 50.0937
ITEM: TIMESTEP
460
ITEM: NUMBER OF ATOMS
3
ITEM: BOX BOUNDS mm mm mm
-1.0000000000000000e-03 1.0000000000000000e-03
-1.0000000000000000e-03 1.0000000000000000e-03
-1.0000000000000000e-03 1.0000000000000000e-03
ITEM: ATOMS id x y z vx vy vz
1 -5.31318e-05 -2.41329e-05 3.54692e-05 -165.864 -74.2506 259.584
2 7.55753e-05 3.30078e-05 -6.65821e-05 155.879 61.8262 -140.186
3 8.83519e-05 8.49487e-05 1.9332e-05 -17.8354 -11.1527 -56.2196
ITEM: TIMESTEP
470
ITEM: NUMBER OF ATOMS
3
ITEM: BOX BOUNDS mm mm mm
-1.0000000000000000e-03 1.0000000000000000e-03
-1.0000000000000000e-03 1.0000000000000000e-03
-1.0000000000000000e-03 1.0000000000000000e-03
ITEM: ATOMS id x y z vx vy vz
1 4.62146e-05 2.06656e-05 0.000123813 -185.258 -83.9845 -125.124
2 -4.89526e-05 -2.00119e-05 -6.10121e-05 279.336 124.059 140.672
3 -1.42314e-05 -1.51059e-05 -3.33555e-05 364.829 348.831 -18.7268
ITEM: TIMESTEP
480
ITEM: NUMBER OF ATOMS
3
ITEM: BOX BOUNDS mm mm mm
-1.0000000000000000e-03 1.0000000000000000e-03
-1.0000000000000000e-03 1.0000000000000000e-03
-1.0000000000000000e-03 1.0000000000000000e-03
ITEM: ATOMS id x y z vx vy vz
1 3.01403e-05 1.36896e-05 -8.82526e-05 223.676 100.935 -175.394
2 -4.99831e-05 -2.27295e-05 8.14446e-05 -249.762 -102.519 63.9286
3 -7.58469e-05 -7.21248e-05 -5.11404e-06 -125.861 -127.186 57.3076
ITEM: TIMESTEP
490
ITEM: NUMBER OF ATOMS
3
ITEM: BOX BOUNDS mm mm mm
-1.0000000000000000e-03 1.0000000000000000e-03
-1.0000000000000000e-03 1.0000000000000000e-03
-1.0000000000000000e-03 1.0000000000000000e-03
ITEM: ATOMS id x y z vx vy vz
1 -5.43542e-05 -2.46582e-05 -7.44565e-05 82.0524 37.7061 186.091
2 6.34535e-05 2.60451e-05 1.6489e-05 -155.973 -75.2001 -151.097
3 4.23016e-05 4.21022e-05 2.78687e-05 -286.406 -267.87 -8.54231
ITEM: TIMESTEP
500
ITEM: NUMBER OF ATOMS
3
ITEM: BOX BOUNDS mm mm mm
-1.0000000000000000e-03 1.0000000000000000e-03
-1.0000000000000000e-03 1.0000000000000000e-03
-1.0000000000000000e-03 1.0000000000000000e-03
ITEM: ATOMS id x y z vx vy vz
1 -6.62006e-06 -3.21109e-06 0.00010656 -236.713 -107.434 73.8961
2 2.00226e-05 1.07767e-05 -8.26028e-05 287.362 120.436 7.35318
3 5.30363e-05 4.86675e-05 -9.74593e-06 227.354 222.595 -45.1873
ITEM: TIMESTEP
510
ITEM: NUMBER OF ATOMS
3
ITEM: BOX BOUNDS mm mm mm
-1.0000000000000000e-03 1.0000000000000000e-03
-1.0000000000000000e-03 1.0000000000000000e-03
-1.0000000000000000e-03 1.0000000000000000e-03
ITEM: ATOMS id x y z vx vy vz
1 5.20453e-05 2.35755e-05 1.6435e-05 17.7774 7.63016 -194.867
2 -6.54826e-05 -2.78556e-05 1.62899e-05 28.4124 23.8232 130.942
3 -6.02508e-05 -5.82392e-05 -2.18874e-05 175.403 156.338 24.9162
ITEM: TIMESTEP
520
ITEM: NUMBER OF ATOMS
3
ITEM: BOX BOUNDS mm mm mm
-1.0000000000000000e-03 1.0000000000000000e-03
-1.0000000000000000e-03 1.0000000000000000e-03
-1.0000000000000000e-03 1.0000000000000000e-03
ITEM: ATOMS id x y z vx vy vz
1 -1.47049e-05 -6.69847e-06 -0.000104581 209.352 95.6374 18.7726
2 7.0716e-06 1.95447e-07 6.31749e-05 -270.646 -117.095 -60.1647
3 -2.56325e-05 -2.17598e-05 1.47596e-05 -278.202 -266.252 26.7254
ITEM: TIMESTEP
530
ITEM: NUMBER OF ATOMS
3
ITEM: BOX BOUNDS mm mm mm
-1.0000000000000000e-03 1.0000000000000000e-03
-1.0000000000000000e-03 1.0000000000000000e-03
-1.0000000000000000e-03 1.0000000000000000e-03
ITEM: ATOMS id x y z vx vy vz
1 -4.19425e-05 -1.94182e-05 2.65246e-05 -98.9811 -45.0993 163.1
2 5.53084e-05 2.50782e-05 -4.35023e-05 81.0091 19.21 -91.8083
3 6.57031e-05 6.12766e-05 9.67097e-06 -53.1721 -34.4026 -30.5882
ITEM: TIMESTEP
540
ITEM: NUMBER OF ATOMS
3
ITEM: BOX BOUNDS mm mm mm
-1.0000000000000000e-03 1.0000000000000000e-03
-1.0000000000000000e-03 1.0000000000000000e-03
-1.0000000000000000e-03 1.0000000000000000e-03
ITEM: ATOMS id x y z vx vy vz
1 2.9652e-05 1.34922e-05 7.67875e-05 -151.75 -70.0268 -85.9023
2 -2.87898e-05 -9.13143e-06 -4.14848e-05 209.811 99.7552 89.4138
3 -2.11821e-06 -5.49651e-06 -1.8101e-05 279.443 256.294 -8.39589
ITEM: TIMESTEP
550
ITEM: NUMBER OF ATOMS
3
ITEM: BOX BOUNDS mm mm mm
-1.0000000000000000e-03 1.0000000000000000e-03
-1.0000000000000000e-03 1.0000000000000000e-03
-1.0000000000000000e-03 1.0000000000000000e-03
ITEM: ATOMS id x y z vx vy vz
1 2.61579e-05 1.20475e-05 -5.94279e-05 150.607 69.4304 -108.507
2 -3.88104e-05 -1.97993e-05 5.20975e-05 -153.896 -52.0537 46.5257
3 -6.0139e-05 -5.40075e-05 -3.17718e-06 -62.1787 -72.8587 28.3284
ITEM: TIMESTEP
560
ITEM: NUMBER OF ATOMS
3
ITEM: BOX BOUNDS mm mm mm
-1.0000000000000000e-03 1.0000000000000000e-03
-1.0000000000000000e-03 1.0000000000000000e-03
-1.0000000000000000e-03 1.0000000000000000e-03
ITEM: ATOMS id x y z vx vy vz
1 -3.79166e-05 -1.75998e-05 -4.61535e-05 78.9818 36.6477 121.648
2 4.05071e-05 1.44077e-05 1.40182e-05 -126.946 -74.214 -96.3498
3 2.56125e-05 2.70218e-05 1.21834e-05 -234.925 -202.172 -6.30431
ITEM: TIMESTEP
570
ITEM: NUMBER OF ATOMS
3
ITEM: BOX BOUNDS mm mm mm
-1.0000000000000000e-03 1.0000000000000000e-03
-1.0000000000000000e-03 1.0000000000000000e-03
-1.0000000000000000e-03 1.0000000000000000e-03
ITEM: ATOMS id x y z vx vy vz
1 -8.9565e-06 -4.38438e-06 6.66747e-05 -167.931 -79.3103 44.0641
2 1.75934e-05 1.31964e-05 -5.32868e-05 184.224 72.4625 -3.83246
3 4.58577e-05 3.72988e-05 -4.8523e-06 152.817 150.162 -18.9407
ITEM: TIMESTEP
580
ITEM: NUMBER OF ATOMS
3
ITEM: BOX BOUNDS mm mm mm
-1.0000000000000000e-03 1.0000000000000000e-03
-1.0000000000000000e-03 1.0000000000000000e-03
-1.0000000000000000e-03 1.0000000000000000e-03
ITEM: ATOMS id x y z vx vy vz
1 3.78304e-05 1.78359e-05 9.17101e-06 -3.89739 -2.02082 -121.316
2 -4.25311e-05 -1.78519e-05 3.9173e-06 38.1096 44.8088 84.3365
3 -4.31883e-05 -4.06394e-05 -8.69275e-06 158.753 120.743 10.9792
ITEM: TIMESTEP
590
ITEM: NUMBER OF ATOMS
3
ITEM: BOX BOUNDS mm mm mm
-1.0000000000000000e-03 1.0000000000000000e-03
-1.0000000000000000e-03 1.0000000000000000e-03
-1.0000000000000000e-03 1.0000000000000000e-03
ITEM: ATOMS id x y z vx vy vz
1 -7.45838e-06 -3.64138e-06 -6.6648e-05 154.668 73.4005 11.4485
2 5.74321e-07 -6.77786e-06 4.40562e-05 -176.633 -80.7039 -26.5138
3 -2.54453e-05 -1.705e-05 3.74944e-06 -207.031 -186.762 7.70321
ITEM: TIMESTEP
600
ITEM: NUMBER OF ATOMS
3
ITEM: BOX BOUNDS mm mm mm
-1.0000000000000000e-03 1.0000000000000000e-03
-1.0000000000000000e-03 1.0000000000000000e-03
-1.0000000000000000e-03 1.0000000000000000e-03
ITEM: ATOMS id x y z vx vy vz
1 -3.19538e-05 -1.56784e-05 1.43586e-05 -60.7221 -29.7031 99.5979
2 3.55827e-05 1.90584e-05 -1.91882e-05 35.7503 -16.6747 -63.3986
3 5.15197e-05 4.3285e-05 -2.22349e-07 -62.7351 -27.9505 -10.1241
ITEM: TIMESTEP
610
ITEM: NUMBER OF ATOMS
3
ITEM: BOX BOUNDS mm mm mm
-1.0000000000000000e-03 1.0000000000000000e-03
-1.0000000000000000e-03 1.0000000000000000e-03
-1.0000000000000000e-03 1.0000000000000000e-03
ITEM: ATOMS id x y z vx vy vz
1 1.95806e-05 9.53072e-06 4.7543e-05 -117.556 -57.3031 -49.0995
2 -1.48644e-05 1.34143e-07 -3.38037e-05 136.954 83.0828 40.5756
3 2.41707e-06 -3.69096e-06 -4.38416e-06 223.604 180.156 3.60688
ITEM: TIMESTEP
620
ITEM: NUMBER OF ATOMS
3
ITEM: BOX BOUNDS mm mm mm
-1.0000000000000000e-03 1.0000000000000000e-03
-1.0000000000000000e-03 1.0000000000000000e-03
-1.0000000000000000e-03 1.0000000000000000e-03
ITEM: ATOMS id x y z vx vy vz
1 2.04698e-05 9.88696e-06 -3.53564e-05 104.218 51.61 -72.318
2 -2.43267e-05 -2.03243e-05 2.40973e-05 -79.5592 -8.78189 47.9174
3 -5.03339e-05 -3.55586e-05 2.1965e-06 -38.4814 -54.5422 3.62302
ITEM: TIMESTEP
630
ITEM: NUMBER OF ATOMS
3
ITEM: BOX BOUNDS mm mm mm
-1.0000000000000000e-03 1.0000000000000000e-03
-1.0000000000000000e-03 1.0000000000000000e-03
-1.0000000000000000e-03 1.0000000000000000e-03
ITEM: ATOMS id x y z vx vy vz
1 -2.69451e-05 -1.34219e-05 -3.29269e-05 63.7189 30.7301 72.2436
2 2.12342e-05 5.44714e-06 2.18931e-05 -83.7793 -83.3096 -48.4087
3 1.90647e-05 1.92203e-05 -2.65062e-06 -196.495 -130.943 -10.436
ITEM: TIMESTEP
640
ITEM: NUMBER OF ATOMS
3
ITEM: BOX BOUNDS mm mm mm
-1.0000000000000000e-03 1.0000000000000000e-03
-1.0000000000000000e-03 1.0000000000000000e-03
-1.0000000000000000e-03 1.0000000000000000e-03
ITEM: ATOMS id x y z vx vy vz
1 -7.92031e-06 -3.79642e-06 3.87512e-05 -124.168 -62.3138 36.3622
2 1.31335e-05 1.93671e-05 -2.79221e-05 93.6372 40.8035 -33.8001
3 3.8035e-05 2.10091e-05 -6.30165e-06 126.844 103.132 9.85288
ITEM: TIMESTEP
650
ITEM: NUMBER OF ATOMS
3
ITEM: BOX BOUNDS mm mm mm
-1.0000000000000000e-03 1.0000000000000000e-03
-1.0000000000000000e-03 1.0000000000000000e-03
-1.0000000000000000e-03 1.0000000000000000e-03
ITEM: ATOMS id x y z vx vy vz
1 2.83909e-05 1.41473e-05 1.13715e-05 -6.88541 -2.15576 -72.2947
2 -2.22837e-05 -1.29352e-05 -1.7589e-05 38.7806 73.874 46.3048
3 -3.60902e-05 -2.6693e-05 6.85335e-06 128.63 64.3208 8.78647
ITEM: TIMESTEP
660
ITEM: NUMBER OF ATOMS
3
ITEM: BOX BOUNDS mm mm mm
-1.0000000000000000e-03 1.0000000000000000e-03
-1.0000000000000000e-03 1.0000000000000000e-03
-1.0000000000000000e-03 1.0000000000000000e-03
ITEM: ATOMS id x y z vx vy vz
1 -5.50483e-06 -3.16292e-06 -4.50293e-05 114.148 64.8729 -7.15107
2 -5.57281e-06 -1.5292e-05 2.46588e-05 -87.7781 -82.1562 24.9542
3 -1.79021e-05 -6.17557e-06 6.69425e-06 -176.356 -109.824 -21.2039
ITEM: TIMESTEP
670
ITEM: NUMBER OF ATOMS
3
ITEM: BOX BOUNDS mm mm mm
-1.0000000000000000e-03 1.0000000000000000e-03
-1.0000000000000000e-03 1.0000000000000000e-03
-1.0000000000000000e-03 1.0000000000000000e-03
ITEM: ATOMS id x y z vx vy vz
1 -2.47609e-05 -1.37902e-05 -1.19547e-08 -47.0354 -26.6594 67.2096
2 1.92605e-05 2.11216e-05 1.14917e-05 -8.89799 -45.6877 -42.2789
3 4.30038e-05 2.43801e-05 -1.54828e-05 -32.6858 -2.75418 -8.31991
ITEM: TIMESTEP
680
ITEM: NUMBER OF ATOMS
3
ITEM: BOX BOUNDS mm mm mm
-1.0000000000000000e-03 1.0000000000000000e-03
-1.0000000000000000e-03 1.0000000000000000e-03
-1.0000000000000000e-03 1.0000000000000000e-03
ITEM: ATOMS id x y z vx vy vz
1 1.55574e-05 8.80548e-06 3.56427e-05 -88.4807 -49.7422 -15.2609
2 5.97337e-07 4.87929e-06 -2.14062e-05 81.9686 105.795 -14.1762
3 -5.26098e-06 -4.524e-06 -9.8816e-06 177.719 89.0385 25.1714
ITEM: TIMESTEP
690
ITEM: NUMBER OF ATOMS
3
ITEM: BOX BOUNDS mm mm mm
-1.0000000000000000e-03 1.0000000000000000e-03
-1.0000000000000000e-03 1.0000000000000000e-03