LAMMPS (23 Jun 2022)
##################################################################
# LAMMPS input file generated using pylion 0.5.3
# simulation name: test
#
# pylion is written and maintained by Dimitris Trypogeorgos
# and Elliot Bentine. Download it from
# https://bitbucket.org/dtrypogeorgos/pylion
#
# If you find it useful please cite <paper>.
##################################################################



units si
atom_style charge

# Creating simulation box...
boundary m m m
region simulationDomain block -0.001  0.001 -0.001 0.001 -0.001 0.001 units box
create_box 2 simulationDomain
Created orthogonal box = (-0.001 -0.001 -0.001) to (0.001 0.001 0.001)
  1 by 1 by 1 MPI processor grid

# Configure neighbour list...
neighbor 1 nsq
neigh_modify once yes

# Configure pairwise interactions for long range Coulombics only...
pair_style coul/cut 10
pair_coeff * *

# Placing individual ions...


create_atoms 1 single 0.00010743947175884377 -6.160845436335825e-05 0.0002957866794505302 units box
Created 1 atoms
  using box units in orthogonal box = (-0.001 -0.001 -0.001) to (0.001 0.001 0.001)
  create_atoms CPU = 0.000 seconds

create_atoms 1 single 1.7244855431581506e-05 -9.153411903053789e-05 0.00014564001903509432 units box
Created 1 atoms
  using box units in orthogonal box = (-0.001 -0.001 -0.001) to (0.001 0.001 0.001)
  create_atoms CPU = 0.000 seconds

create_atoms 1 single 0.0005511152288001114 -0.00040627667174365333 -0.00046895609615772444 units box
Created 1 atoms
  using box units in orthogonal box = (-0.001 -0.001 -0.001) to (0.001 0.001 0.001)
  create_atoms CPU = 0.000 seconds

create_atoms 1 single -3.1149923058970015e-05 -0.00016364267408827023 -0.0006560169332128994 units box
Created 1 atoms
  using box units in orthogonal box = (-0.001 -0.001 -0.001) to (0.001 0.001 0.001)
  create_atoms CPU = 0.000 seconds

create_atoms 1 single -1.804750303357096e-05 -1.040265222362389e-05 7.395831871112195e-05 units box
Created 1 atoms
  using box units in orthogonal box = (-0.001 -0.001 -0.001) to (0.001 0.001 0.001)
  create_atoms CPU = 0.000 seconds

create_atoms 1 single -3.376532379287696e-05 -0.00021641114542998109 0.00022902439183534573 units box
Created 1 atoms
  using box units in orthogonal box = (-0.001 -0.001 -0.001) to (0.001 0.001 0.001)
  create_atoms CPU = 0.000 seconds

create_atoms 1 single 1.534491584293023e-05 2.020071322998851e-05 -5.1717982011096375e-05 units box
Created 1 atoms
  using box units in orthogonal box = (-0.001 -0.001 -0.001) to (0.001 0.001 0.001)
  create_atoms CPU = 0.000 seconds

create_atoms 1 single -0.00041915218697614263 -8.28030171651828e-05 -0.0004566593222765801 units box
Created 1 atoms
  using box units in orthogonal box = (-0.001 -0.001 -0.001) to (0.001 0.001 0.001)
  create_atoms CPU = 0.000 seconds

create_atoms 1 single -0.0005013112861832414 -0.00039388522009812084 0.00042313553307698256 units box
Created 1 atoms
  using box units in orthogonal box = (-0.001 -0.001 -0.001) to (0.001 0.001 0.001)
  create_atoms CPU = 0.000 seconds

create_atoms 1 single -0.000250132401940659 -0.0005911119516307048 -0.0004788886801880104 units box
Created 1 atoms
  using box units in orthogonal box = (-0.001 -0.001 -0.001) to (0.001 0.001 0.001)
  create_atoms CPU = 0.000 seconds

create_atoms 1 single -3.69818611497274e-05 0.00040304458113237066 -0.000532696998366388 units box
Created 1 atoms
  using box units in orthogonal box = (-0.001 -0.001 -0.001) to (0.001 0.001 0.001)
  create_atoms CPU = 0.000 seconds

create_atoms 1 single -3.0471161196622775e-05 -0.0008756729151630676 0.00011589844676439061 units box
Created 1 atoms
  using box units in orthogonal box = (-0.001 -0.001 -0.001) to (0.001 0.001 0.001)
  create_atoms CPU = 0.000 seconds

create_atoms 1 single -0.0001482749920481348 0.00028382703102398487 0.0009039496029795218 units box
Created 1 atoms
  using box units in orthogonal box = (-0.001 -0.001 -0.001) to (0.001 0.001 0.001)
  create_atoms CPU = 0.000 seconds

create_atoms 1 single 0.0004559358904918615 -0.00042617634466763564 -0.00010453291203603133 units box
Created 1 atoms
  using box units in orthogonal box = (-0.001 -0.001 -0.001) to (0.001 0.001 0.001)
  create_atoms CPU = 0.000 seconds

create_atoms 1 single -5.296921996236356e-05 3.708649132895876e-05 -0.00012754840129833062 units box
Created 1 atoms
  using box units in orthogonal box = (-0.001 -0.001 -0.001) to (0.001 0.001 0.001)
  create_atoms CPU = 0.000 seconds

create_atoms 1 single 0.00018068271295664074 -0.0001239136958623098 0.0002184558306022225 units box
Created 1 atoms
  using box units in orthogonal box = (-0.001 -0.001 -0.001) to (0.001 0.001 0.001)
  create_atoms CPU = 0.000 seconds

create_atoms 1 single 0.00039649880194985343 -0.00013023347257398312 0.00035191239617029206 units box
Created 1 atoms
  using box units in orthogonal box = (-0.001 -0.001 -0.001) to (0.001 0.001 0.001)
  create_atoms CPU = 0.000 seconds

create_atoms 1 single -2.5825123517033083e-06 1.7716371501194069e-07 9.574564320374018e-06 units box
Created 1 atoms
  using box units in orthogonal box = (-0.001 -0.001 -0.001) to (0.001 0.001 0.001)
  create_atoms CPU = 0.000 seconds

create_atoms 1 single 2.503063157388983e-06 9.672962806241605e-06 -4.37251806186337e-05 units box
Created 1 atoms
  using box units in orthogonal box = (-0.001 -0.001 -0.001) to (0.001 0.001 0.001)
  create_atoms CPU = 0.000 seconds

create_atoms 1 single 0.00011386461564350833 -0.00034059402621026616 0.00042569207948733195 units box
Created 1 atoms
  using box units in orthogonal box = (-0.001 -0.001 -0.001) to (0.001 0.001 0.001)
  create_atoms CPU = 0.000 seconds


# Species...
mass 1 1.4944851e-26
set type 1 charge 1.6021764599999998e-19
Setting atom values ...
  20 settings made for charge
group 1 type 1
20 atoms in group 1



create_atoms 2 single -0.00035379928705931823 -0.00016722509400201043 -0.0005561386229220929 units box
Created 1 atoms
  using box units in orthogonal box = (-0.001 -0.001 -0.001) to (0.001 0.001 0.001)
  create_atoms CPU = 0.000 seconds

create_atoms 2 single -2.1598918536112177e-05 2.5198609806047784e-07 -0.0005237002347440494 units box
Created 1 atoms
  using box units in orthogonal box = (-0.001 -0.001 -0.001) to (0.001 0.001 0.001)
  create_atoms CPU = 0.000 seconds

create_atoms 2 single 2.326336698013882e-06 1.3807207983610974e-06 -6.473294594156664e-06 units box
Created 1 atoms
  using box units in orthogonal box = (-0.001 -0.001 -0.001) to (0.001 0.001 0.001)
  create_atoms CPU = 0.000 seconds

create_atoms 2 single -1.909675448605534e-05 6.805647903540753e-05 -4.093300380832983e-05 units box
Created 1 atoms
  using box units in orthogonal box = (-0.001 -0.001 -0.001) to (0.001 0.001 0.001)
  create_atoms CPU = 0.000 seconds

create_atoms 2 single -7.192096276717351e-05 -5.9266172329548416e-05 0.000499246341383104 units box
Created 1 atoms
  using box units in orthogonal box = (-0.001 -0.001 -0.001) to (0.001 0.001 0.001)
  create_atoms CPU = 0.000 seconds

create_atoms 2 single 2.7005120211117227e-05 4.254332150058447e-05 0.000990038169819954 units box
Created 1 atoms
  using box units in orthogonal box = (-0.001 -0.001 -0.001) to (0.001 0.001 0.001)
  create_atoms CPU = 0.000 seconds

create_atoms 2 single 1.7548899381675754e-05 0.0002249339925337562 0.0009733783699828573 units box
Created 1 atoms
  using box units in orthogonal box = (-0.001 -0.001 -0.001) to (0.001 0.001 0.001)
  create_atoms CPU = 0.000 seconds

create_atoms 2 single 5.180600313059945e-05 -0.00022890529737331115 -0.0001050771129930344 units box
Created 1 atoms
  using box units in orthogonal box = (-0.001 -0.001 -0.001) to (0.001 0.001 0.001)
  create_atoms CPU = 0.000 seconds

create_atoms 2 single -2.4429729202510555e-05 -8.67147701125984e-06 0.00022947574046658847 units box
Created 1 atoms
  using box units in orthogonal box = (-0.001 -0.001 -0.001) to (0.001 0.001 0.001)
  create_atoms CPU = 0.000 seconds

create_atoms 2 single 0.00013156190867358498 -0.0007803666744104871 -0.00041808471279630233 units box
Created 1 atoms
  using box units in orthogonal box = (-0.001 -0.001 -0.001) to (0.001 0.001 0.001)
  create_atoms CPU = 0.000 seconds


# Species...
mass 2 5.3137248e-26
set type 2 charge 1.6021764599999998e-19
Setting atom values ...
  10 settings made for charge
group 2 type 2
10 atoms in group 2



# Configuring additional output to flush buffer during simulation...
thermo 10000
thermo_style custom step cpu
thermo_modify flush yes

# Time integration...

group nonRigidBody union all
30 atoms in group nonRigidBody

fix timeIntegrator nonRigidBody nve



dump 9324087843 all custom 10 /Users/michaelmitchell/qlicS/data/2024-07-15_13-00-44/positions.txt id x y z vx vy vz





# Pseudopotential approximation for Linear Paul trap... (fixID=9465212537)


# SHO

variable k_x9465212537		equal 1.773509e-12

variable k_y9465212537		equal 1.773509e-12

variable k_z9465212537		equal 1.548694e-13

variable fX9465212537 atom "-v_k_x9465212537 * x"

variable fY9465212537 atom "-v_k_y9465212537 * y"

variable fZ9465212537 atom "-v_k_z9465212537 * z"

variable E9465212537 atom "v_k_x9465212537 * x * x /         2 + v_k_y9465212537 * y * y / 2 + v_k_z9465212537 * z * z / 2"

fix 9465212537 1 addforce         v_fX9465212537 v_fY9465212537 v_fZ9465212537 energy v_E9465212537




variable coolx atom (9.269386030594033e-20+(2.703426035144626e-21*vx))*-0.5000000000000001
variable cooly atom (9.269386030594033e-20+2.703426035144626e-21*vy)*-0.5000000000000001
variable coolz atom (9.269386030594033e-20+2.703426035144626e-21*vz)*-0.7071067811865476
fix 569202603907002 1 addforce v_coolx v_cooly v_coolz



timestep 1e-08


# Run simulation

run 20000
Generated 0 of 1 mixed pair_coeff terms from geometric mixing rule
Neighbor list info ...
  update every 1 steps, delay 10 steps, check yes
  max neighbors/atom: 2000, page size: 100000
  master list distance cutoff = 11
  ghost atom cutoff = 11
  1 neighbor lists, perpetual/occasional/extra = 1 0 0
  (1) pair coul/cut, perpetual
      attributes: half, newton on
      pair build: half/nsq/newton
      stencil: none
      bin: none
WARNING: Proc sub-domain size < neighbor skin, could lead to lost atoms (src/domain.cpp:970)
Per MPI rank memory allocation (min/avg/max) = 5.282 | 5.282 | 5.282 Mbytes
   Step          CPU      
         0   0            
     10000   0.51876453   
     20000   1.0370938    
Loop time of 1.03714 on 1 procs for 20000 steps with 30 atoms

94.9% CPU use with 1 MPI tasks x no OpenMP threads

MPI task timing breakdown:
Section |  min time  |  avg time  |  max time  |%varavg| %total
---------------------------------------------------------------
Pair    | 0.10361    | 0.10361    | 0.10361    |   0.0 |  9.99
Neigh   | 0          | 0          | 0          |   0.0 |  0.00
Comm    | 0.0031886  | 0.0031886  | 0.0031886  |   0.0 |  0.31
Output  | 0.1468     | 0.1468     | 0.1468     |   0.0 | 14.15
Modify  | 0.77808    | 0.77808    | 0.77808    |   0.0 | 75.02
Other   |            | 0.005457   |            |       |  0.53

Nlocal:             30 ave          30 max          30 min
Histogram: 1 0 0 0 0 0 0 0 0 0
Nghost:              0 ave           0 max           0 min
Histogram: 1 0 0 0 0 0 0 0 0 0
Neighs:            435 ave         435 max         435 min
Histogram: 1 0 0 0 0 0 0 0 0 0

Total # of neighbors = 435
Ave neighs/atom = 14.5
Neighbor list builds = 0
Dangerous builds = 0





# Deleting a fix by uid

unfix 569202603907002




variable E equal 0
variable Ex atom (0.003*(319.039+-320779.0*(x-0)+163840000.0*(x-0)^2+3188.37*(y-0)+-158115000.0*(y-0)^2+-0.483258*(z-0)+16206.1*(z-0)^2))*cos((2*3.141592653589793)*0.005*step)
variable B equal 0
variable Ey atom (0.003*(-3.62944+3527.19*(x-0)+660075.0*(x-0)^2+320888.0*(y-0)+-1252000.0*(y-0)^2+1.91814*(z-0)+13573.5*(z-0)^2))*cos((2*3.141592653589793)*0.005*step)
variable C equal 0
variable Ez atom (0.003*(0.00111849+-0.582074*(x-0)+-789.5*(x-0)^2+2.08274*(y-0)+1408.33*(y-0)^2+-57.5482*(z-0)+153.512*(z-0)^2))*cos((2*3.141592653589793)*0.005*step)
fix 469202603907007 all efield v_Ex v_Ey v_Ez



timestep 1e-08


# Run simulation

run 1000
Generated 0 of 1 mixed pair_coeff terms from geometric mixing rule
WARNING: Proc sub-domain size < neighbor skin, could lead to lost atoms (src/domain.cpp:970)
Per MPI rank memory allocation (min/avg/max) = 5.282 | 5.282 | 5.282 Mbytes
   Step          CPU      
     20000   0            
     21000   0.13341816   
Loop time of 0.133477 on 1 procs for 1000 steps with 30 atoms

96.8% CPU use with 1 MPI tasks x no OpenMP threads

MPI task timing breakdown:
Section |  min time  |  avg time  |  max time  |%varavg| %total
---------------------------------------------------------------
Pair    | 0.0054376  | 0.0054376  | 0.0054376  |   0.0 |  4.07
Neigh   | 0          | 0          | 0          |   0.0 |  0.00
Comm    | 0.00019464 | 0.00019464 | 0.00019464 |   0.0 |  0.15
Output  | 0.0074172  | 0.0074172  | 0.0074172  |   0.0 |  5.56
Modify  | 0.12009    | 0.12009    | 0.12009    |   0.0 | 89.97
Other   |            | 0.0003416  |            |       |  0.26

Nlocal:             30 ave          30 max          30 min
Histogram: 1 0 0 0 0 0 0 0 0 0
Nghost:              0 ave           0 max           0 min
Histogram: 1 0 0 0 0 0 0 0 0 0
Neighs:            435 ave         435 max         435 min
Histogram: 1 0 0 0 0 0 0 0 0 0

Total # of neighbors = 435
Ave neighs/atom = 14.5
Neighbor list builds = 0
Dangerous builds = 0




timestep 1e-09


# Run simulation

run 1000
Generated 0 of 1 mixed pair_coeff terms from geometric mixing rule
WARNING: Proc sub-domain size < neighbor skin, could lead to lost atoms (src/domain.cpp:970)
Per MPI rank memory allocation (min/avg/max) = 5.282 | 5.282 | 5.282 Mbytes
   Step          CPU      
     21000   0            
     22000   0.13690393   
Loop time of 0.136924 on 1 procs for 1000 steps with 30 atoms

95.4% CPU use with 1 MPI tasks x no OpenMP threads

MPI task timing breakdown:
Section |  min time  |  avg time  |  max time  |%varavg| %total
---------------------------------------------------------------
Pair    | 0.0053749  | 0.0053749  | 0.0053749  |   0.0 |  3.93
Neigh   | 0          | 0          | 0          |   0.0 |  0.00
Comm    | 0.00026403 | 0.00026403 | 0.00026403 |   0.0 |  0.19
Output  | 0.0078818  | 0.0078818  | 0.0078818  |   0.0 |  5.76
Modify  | 0.12305    | 0.12305    | 0.12305    |   0.0 | 89.87
Other   |            | 0.0003499  |            |       |  0.26

Nlocal:             30 ave          30 max          30 min
Histogram: 1 0 0 0 0 0 0 0 0 0
Nghost:              0 ave           0 max           0 min
Histogram: 1 0 0 0 0 0 0 0 0 0
Neighs:            435 ave         435 max         435 min
Histogram: 1 0 0 0 0 0 0 0 0 0

Total # of neighbors = 435
Ave neighs/atom = 14.5
Neighbor list builds = 0
Dangerous builds = 0




variable coolx atom (9.269386030594033e-20+(2.703426035144626e-21*vx))*-0.5000000000000001
variable cooly atom (9.269386030594033e-20+2.703426035144626e-21*vy)*-0.5000000000000001
variable coolz atom (9.269386030594033e-20+2.703426035144626e-21*vz)*-0.7071067811865476
fix 569202603907003 1 addforce v_coolx v_cooly v_coolz



timestep 1e-08


# Run simulation

run 2000
Generated 0 of 1 mixed pair_coeff terms from geometric mixing rule
WARNING: Proc sub-domain size < neighbor skin, could lead to lost atoms (src/domain.cpp:970)
Per MPI rank memory allocation (min/avg/max) = 5.782 | 5.782 | 5.782 Mbytes
   Step          CPU      
     22000   0            
     24000   0.30570051   
Loop time of 0.30572 on 1 procs for 2000 steps with 30 atoms

95.7% CPU use with 1 MPI tasks x no OpenMP threads

MPI task timing breakdown:
Section |  min time  |  avg time  |  max time  |%varavg| %total
---------------------------------------------------------------
Pair    | 0.010956   | 0.010956   | 0.010956   |   0.0 |  3.58
Neigh   | 0          | 0          | 0          |   0.0 |  0.00
Comm    | 0.00040026 | 0.00040026 | 0.00040026 |   0.0 |  0.13
Output  | 0.017261   | 0.017261   | 0.017261   |   0.0 |  5.65
Modify  | 0.27635    | 0.27635    | 0.27635    |   0.0 | 90.39
Other   |            | 0.0007477  |            |       |  0.24

Nlocal:             30 ave          30 max          30 min
Histogram: 1 0 0 0 0 0 0 0 0 0
Nghost:              0 ave           0 max           0 min
Histogram: 1 0 0 0 0 0 0 0 0 0
Neighs:            435 ave         435 max         435 min
Histogram: 1 0 0 0 0 0 0 0 0 0

Total # of neighbors = 435
Ave neighs/atom = 14.5
Neighbor list builds = 0
Dangerous builds = 0





# Deleting a fix by uid

unfix 469202603907007





# Deleting a fix by uid

unfix 569202603907003




variable E equal 0
variable Ex atom (0.003*(319.039+-320779.0*(x-0)+163840000.0*(x-0)^2+3188.37*(y-0)+-158115000.0*(y-0)^2+-0.483258*(z-0)+16206.1*(z-0)^2))*cos((2*3.141592653589793)*0.006*step)
variable B equal 0
variable Ey atom (0.003*(-3.62944+3527.19*(x-0)+660075.0*(x-0)^2+320888.0*(y-0)+-1252000.0*(y-0)^2+1.91814*(z-0)+13573.5*(z-0)^2))*cos((2*3.141592653589793)*0.006*step)
variable C equal 0
variable Ez atom (0.003*(0.00111849+-0.582074*(x-0)+-789.5*(x-0)^2+2.08274*(y-0)+1408.33*(y-0)^2+-57.5482*(z-0)+153.512*(z-0)^2))*cos((2*3.141592653589793)*0.006*step)
fix 469202603907008 all efield v_Ex v_Ey v_Ez



timestep 1e-08


# Run simulation

run 1000
Generated 0 of 1 mixed pair_coeff terms from geometric mixing rule
WARNING: Proc sub-domain size < neighbor skin, could lead to lost atoms (src/domain.cpp:970)
Per MPI rank memory allocation (min/avg/max) = 5.282 | 5.282 | 5.282 Mbytes
   Step          CPU      
     24000   0            
     25000   0.12873626   
Loop time of 0.128754 on 1 procs for 1000 steps with 30 atoms

97.1% CPU use with 1 MPI tasks x no OpenMP threads

MPI task timing breakdown:
Section |  min time  |  avg time  |  max time  |%varavg| %total
---------------------------------------------------------------
Pair    | 0.0051972  | 0.0051972  | 0.0051972  |   0.0 |  4.04
Neigh   | 0          | 0          | 0          |   0.0 |  0.00
Comm    | 0.00016165 | 0.00016165 | 0.00016165 |   0.0 |  0.13
Output  | 0.0067812  | 0.0067812  | 0.0067812  |   0.0 |  5.27
Modify  | 0.11632    | 0.11632    | 0.11632    |   0.0 | 90.34
Other   |            | 0.0002974  |            |       |  0.23

Nlocal:             30 ave          30 max          30 min
Histogram: 1 0 0 0 0 0 0 0 0 0
Nghost:              0 ave           0 max           0 min
Histogram: 1 0 0 0 0 0 0 0 0 0
Neighs:            435 ave         435 max         435 min
Histogram: 1 0 0 0 0 0 0 0 0 0

Total # of neighbors = 435
Ave neighs/atom = 14.5
Neighbor list builds = 0
Dangerous builds = 0




timestep 1e-09


# Run simulation

run 1000
Generated 0 of 1 mixed pair_coeff terms from geometric mixing rule
WARNING: Proc sub-domain size < neighbor skin, could lead to lost atoms (src/domain.cpp:970)
Per MPI rank memory allocation (min/avg/max) = 5.282 | 5.282 | 5.282 Mbytes
   Step          CPU      
     25000   0            
     26000   0.13174086   
Loop time of 0.13176 on 1 procs for 1000 steps with 30 atoms

96.5% CPU use with 1 MPI tasks x no OpenMP threads

MPI task timing breakdown:
Section |  min time  |  avg time  |  max time  |%varavg| %total
---------------------------------------------------------------
Pair    | 0.0052629  | 0.0052629  | 0.0052629  |   0.0 |  3.99
Neigh   | 0          | 0          | 0          |   0.0 |  0.00
Comm    | 0.00017142 | 0.00017142 | 0.00017142 |   0.0 |  0.13
Output  | 0.007182   | 0.007182   | 0.007182   |   0.0 |  5.45
Modify  | 0.11884    | 0.11884    | 0.11884    |   0.0 | 90.19
Other   |            | 0.0003037  |            |       |  0.23

Nlocal:             30 ave          30 max          30 min
Histogram: 1 0 0 0 0 0 0 0 0 0
Nghost:              0 ave           0 max           0 min
Histogram: 1 0 0 0 0 0 0 0 0 0
Neighs:            435 ave         435 max         435 min
Histogram: 1 0 0 0 0 0 0 0 0 0

Total # of neighbors = 435
Ave neighs/atom = 14.5
Neighbor list builds = 0
Dangerous builds = 0




variable coolx atom (9.269386030594033e-20+(2.703426035144626e-21*vx))*-0.5000000000000001
variable cooly atom (9.269386030594033e-20+2.703426035144626e-21*vy)*-0.5000000000000001
variable coolz atom (9.269386030594033e-20+2.703426035144626e-21*vz)*-0.7071067811865476
fix 569202603907004 1 addforce v_coolx v_cooly v_coolz



timestep 1e-08


# Run simulation

run 2000
Generated 0 of 1 mixed pair_coeff terms from geometric mixing rule
WARNING: Proc sub-domain size < neighbor skin, could lead to lost atoms (src/domain.cpp:970)
Per MPI rank memory allocation (min/avg/max) = 5.782 | 5.782 | 5.782 Mbytes
   Step          CPU      
     26000   0            
     28000   0.31132285   
Loop time of 0.311344 on 1 procs for 2000 steps with 30 atoms

96.7% CPU use with 1 MPI tasks x no OpenMP threads

MPI task timing breakdown:
Section |  min time  |  avg time  |  max time  |%varavg| %total
---------------------------------------------------------------
Pair    | 0.011213   | 0.011213   | 0.011213   |   0.0 |  3.60
Neigh   | 0          | 0          | 0          |   0.0 |  0.00
Comm    | 0.00038238 | 0.00038238 | 0.00038238 |   0.0 |  0.12
Output  | 0.016408   | 0.016408   | 0.016408   |   0.0 |  5.27
Modify  | 0.28262    | 0.28262    | 0.28262    |   0.0 | 90.78
Other   |            | 0.0007169  |            |       |  0.23

Nlocal:             30 ave          30 max          30 min
Histogram: 1 0 0 0 0 0 0 0 0 0
Nghost:              0 ave           0 max           0 min
Histogram: 1 0 0 0 0 0 0 0 0 0
Neighs:            435 ave         435 max         435 min
Histogram: 1 0 0 0 0 0 0 0 0 0

Total # of neighbors = 435
Ave neighs/atom = 14.5
Neighbor list builds = 0
Dangerous builds = 0





# Deleting a fix by uid

unfix 469202603907008





# Deleting a fix by uid

unfix 569202603907004




variable E equal 0
variable Ex atom (0.003*(319.039+-320779.0*(x-0)+163840000.0*(x-0)^2+3188.37*(y-0)+-158115000.0*(y-0)^2+-0.483258*(z-0)+16206.1*(z-0)^2))*cos((2*3.141592653589793)*0.006500000000000001*step)
variable B equal 0
variable Ey atom (0.003*(-3.62944+3527.19*(x-0)+660075.0*(x-0)^2+320888.0*(y-0)+-1252000.0*(y-0)^2+1.91814*(z-0)+13573.5*(z-0)^2))*cos((2*3.141592653589793)*0.006500000000000001*step)
variable C equal 0
variable Ez atom (0.003*(0.00111849+-0.582074*(x-0)+-789.5*(x-0)^2+2.08274*(y-0)+1408.33*(y-0)^2+-57.5482*(z-0)+153.512*(z-0)^2))*cos((2*3.141592653589793)*0.006500000000000001*step)
fix 469202603907009 all efield v_Ex v_Ey v_Ez



timestep 1e-08


# Run simulation

run 1000
Generated 0 of 1 mixed pair_coeff terms from geometric mixing rule
WARNING: Proc sub-domain size < neighbor skin, could lead to lost atoms (src/domain.cpp:970)
Per MPI rank memory allocation (min/avg/max) = 5.282 | 5.282 | 5.282 Mbytes
   Step          CPU      
     28000   0            
     29000   0.13032745   
Loop time of 0.130347 on 1 procs for 1000 steps with 30 atoms

98.3% CPU use with 1 MPI tasks x no OpenMP threads

MPI task timing breakdown:
Section |  min time  |  avg time  |  max time  |%varavg| %total
---------------------------------------------------------------
Pair    | 0.0051503  | 0.0051503  | 0.0051503  |   0.0 |  3.95
Neigh   | 0          | 0          | 0          |   0.0 |  0.00
Comm    | 0.00016384 | 0.00016384 | 0.00016384 |   0.0 |  0.13
Output  | 0.0068868  | 0.0068868  | 0.0068868  |   0.0 |  5.28
Modify  | 0.11783    | 0.11783    | 0.11783    |   0.0 | 90.40
Other   |            | 0.0003174  |            |       |  0.24

Nlocal:             30 ave          30 max          30 min
Histogram: 1 0 0 0 0 0 0 0 0 0
Nghost:              0 ave           0 max           0 min
Histogram: 1 0 0 0 0 0 0 0 0 0
Neighs:            435 ave         435 max         435 min
Histogram: 1 0 0 0 0 0 0 0 0 0

Total # of neighbors = 435
Ave neighs/atom = 14.5
Neighbor list builds = 0
Dangerous builds = 0




timestep 1e-09


# Run simulation

run 1000
Generated 0 of 1 mixed pair_coeff terms from geometric mixing rule
WARNING: Proc sub-domain size < neighbor skin, could lead to lost atoms (src/domain.cpp:970)
Per MPI rank memory allocation (min/avg/max) = 5.282 | 5.282 | 5.282 Mbytes
   Step          CPU      
     29000   0            
     30000   0.1331647    
Loop time of 0.133184 on 1 procs for 1000 steps with 30 atoms

97.7% CPU use with 1 MPI tasks x no OpenMP threads

MPI task timing breakdown:
Section |  min time  |  avg time  |  max time  |%varavg| %total
---------------------------------------------------------------
Pair    | 0.0052884  | 0.0052884  | 0.0052884  |   0.0 |  3.97
Neigh   | 0          | 0          | 0          |   0.0 |  0.00
Comm    | 0.00017771 | 0.00017771 | 0.00017771 |   0.0 |  0.13
Output  | 0.0072628  | 0.0072628  | 0.0072628  |   0.0 |  5.45
Modify  | 0.12014    | 0.12014    | 0.12014    |   0.0 | 90.21
Other   |            | 0.0003137  |            |       |  0.24

Nlocal:             30 ave          30 max          30 min
Histogram: 1 0 0 0 0 0 0 0 0 0
Nghost:              0 ave           0 max           0 min
Histogram: 1 0 0 0 0 0 0 0 0 0
Neighs:            435 ave         435 max         435 min
Histogram: 1 0 0 0 0 0 0 0 0 0

Total # of neighbors = 435
Ave neighs/atom = 14.5
Neighbor list builds = 0
Dangerous builds = 0




variable coolx atom (9.269386030594033e-20+(2.703426035144626e-21*vx))*-0.5000000000000001
variable cooly atom (9.269386030594033e-20+2.703426035144626e-21*vy)*-0.5000000000000001
variable coolz atom (9.269386030594033e-20+2.703426035144626e-21*vz)*-0.7071067811865476
fix 569202603907005 1 addforce v_coolx v_cooly v_coolz



timestep 1e-08


# Run simulation

run 2000
Generated 0 of 1 mixed pair_coeff terms from geometric mixing rule
WARNING: Proc sub-domain size < neighbor skin, could lead to lost atoms (src/domain.cpp:970)
Per MPI rank memory allocation (min/avg/max) = 5.782 | 5.782 | 5.782 Mbytes
   Step          CPU      
     30000   0            
     32000   0.30107107   
Loop time of 0.30113 on 1 procs for 2000 steps with 30 atoms

97.4% CPU use with 1 MPI tasks x no OpenMP threads

MPI task timing breakdown:
Section |  min time  |  avg time  |  max time  |%varavg| %total
---------------------------------------------------------------
Pair    | 0.01069    | 0.01069    | 0.01069    |   0.0 |  3.55
Neigh   | 0          | 0          | 0          |   0.0 |  0.00
Comm    | 0.00038407 | 0.00038407 | 0.00038407 |   0.0 |  0.13
Output  | 0.015885   | 0.015885   | 0.015885   |   0.0 |  5.28
Modify  | 0.27343    | 0.27343    | 0.27343    |   0.0 | 90.80
Other   |            | 0.0007422  |            |       |  0.25

Nlocal:             30 ave          30 max          30 min
Histogram: 1 0 0 0 0 0 0 0 0 0
Nghost:              0 ave           0 max           0 min
Histogram: 1 0 0 0 0 0 0 0 0 0
Neighs:            435 ave         435 max         435 min
Histogram: 1 0 0 0 0 0 0 0 0 0

Total # of neighbors = 435
Ave neighs/atom = 14.5
Neighbor list builds = 0
Dangerous builds = 0





# Deleting a fix by uid

unfix 469202603907009





# Deleting a fix by uid

unfix 569202603907005




variable E equal 0
variable Ex atom (0.003*(319.039+-320779.0*(x-0)+163840000.0*(x-0)^2+3188.37*(y-0)+-158115000.0*(y-0)^2+-0.483258*(z-0)+16206.1*(z-0)^2))*cos((2*3.141592653589793)*0.007*step)
variable B equal 0
variable Ey atom (0.003*(-3.62944+3527.19*(x-0)+660075.0*(x-0)^2+320888.0*(y-0)+-1252000.0*(y-0)^2+1.91814*(z-0)+13573.5*(z-0)^2))*cos((2*3.141592653589793)*0.007*step)
variable C equal 0
variable Ez atom (0.003*(0.00111849+-0.582074*(x-0)+-789.5*(x-0)^2+2.08274*(y-0)+1408.33*(y-0)^2+-57.5482*(z-0)+153.512*(z-0)^2))*cos((2*3.141592653589793)*0.007*step)
fix 469202603907010 all efield v_Ex v_Ey v_Ez



timestep 1e-08


# Run simulation

run 1000
Generated 0 of 1 mixed pair_coeff terms from geometric mixing rule
WARNING: Proc sub-domain size < neighbor skin, could lead to lost atoms (src/domain.cpp:970)
Per MPI rank memory allocation (min/avg/max) = 5.282 | 5.282 | 5.282 Mbytes
   Step          CPU      
     32000   0            
     33000   0.14165042   
Loop time of 0.141674 on 1 procs for 1000 steps with 30 atoms

96.2% CPU use with 1 MPI tasks x no OpenMP threads

MPI task timing breakdown:
Section |  min time  |  avg time  |  max time  |%varavg| %total
---------------------------------------------------------------
Pair    | 0.0056007  | 0.0056007  | 0.0056007  |   0.0 |  3.95
Neigh   | 0          | 0          | 0          |   0.0 |  0.00
Comm    | 0.00024438 | 0.00024438 | 0.00024438 |   0.0 |  0.17
Output  | 0.0088128  | 0.0088128  | 0.0088128  |   0.0 |  6.22
Modify  | 0.12662    | 0.12662    | 0.12662    |   0.0 | 89.37
Other   |            | 0.0003986  |            |       |  0.28

Nlocal:             30 ave          30 max          30 min
Histogram: 1 0 0 0 0 0 0 0 0 0
Nghost:              0 ave           0 max           0 min
Histogram: 1 0 0 0 0 0 0 0 0 0
Neighs:            435 ave         435 max         435 min
Histogram: 1 0 0 0 0 0 0 0 0 0

Total # of neighbors = 435
Ave neighs/atom = 14.5
Neighbor list builds = 0
Dangerous builds = 0




timestep 1e-09


# Run simulation

run 1000
Generated 0 of 1 mixed pair_coeff terms from geometric mixing rule
WARNING: Proc sub-domain size < neighbor skin, could lead to lost atoms (src/domain.cpp:970)
Per MPI rank memory allocation (min/avg/max) = 5.282 | 5.282 | 5.282 Mbytes
   Step          CPU      
     33000   0            
     34000   0.15780478   
Loop time of 0.157824 on 1 procs for 1000 steps with 30 atoms

96.6% CPU use with 1 MPI tasks x no OpenMP threads

MPI task timing breakdown:
Section |  min time  |  avg time  |  max time  |%varavg| %total
---------------------------------------------------------------
Pair    | 0.0063412  | 0.0063412  | 0.0063412  |   0.0 |  4.02
Neigh   | 0          | 0          | 0          |   0.0 |  0.00
Comm    | 0.00023336 | 0.00023336 | 0.00023336 |   0.0 |  0.15
Output  | 0.0098494  | 0.0098494  | 0.0098494  |   0.0 |  6.24
Modify  | 0.14097    | 0.14097    | 0.14097    |   0.0 | 89.32
Other   |            | 0.0004307  |            |       |  0.27

Nlocal:             30 ave          30 max          30 min
Histogram: 1 0 0 0 0 0 0 0 0 0
Nghost:              0 ave           0 max           0 min
Histogram: 1 0 0 0 0 0 0 0 0 0
Neighs:            435 ave         435 max         435 min
Histogram: 1 0 0 0 0 0 0 0 0 0

Total # of neighbors = 435
Ave neighs/atom = 14.5
Neighbor list builds = 0
Dangerous builds = 0




variable coolx atom (9.269386030594033e-20+(2.703426035144626e-21*vx))*-0.5000000000000001
variable cooly atom (9.269386030594033e-20+2.703426035144626e-21*vy)*-0.5000000000000001
variable coolz atom (9.269386030594033e-20+2.703426035144626e-21*vz)*-0.7071067811865476
fix 569202603907006 1 addforce v_coolx v_cooly v_coolz



timestep 1e-08


# Run simulation

run 2000
Generated 0 of 1 mixed pair_coeff terms from geometric mixing rule
WARNING: Proc sub-domain size < neighbor skin, could lead to lost atoms (src/domain.cpp:970)
Per MPI rank memory allocation (min/avg/max) = 5.782 | 5.782 | 5.782 Mbytes
   Step          CPU      
     34000   0            
     36000   0.30513576   
Loop time of 0.305157 on 1 procs for 2000 steps with 30 atoms

96.7% CPU use with 1 MPI tasks x no OpenMP threads

MPI task timing breakdown:
Section |  min time  |  avg time  |  max time  |%varavg| %total
---------------------------------------------------------------
Pair    | 0.010792   | 0.010792   | 0.010792   |   0.0 |  3.54
Neigh   | 0          | 0          | 0          |   0.0 |  0.00
Comm    | 0.00039586 | 0.00039586 | 0.00039586 |   0.0 |  0.13
Output  | 0.017169   | 0.017169   | 0.017169   |   0.0 |  5.63
Modify  | 0.27599    | 0.27599    | 0.27599    |   0.0 | 90.44
Other   |            | 0.0008087  |            |       |  0.27

Nlocal:             30 ave          30 max          30 min
Histogram: 1 0 0 0 0 0 0 0 0 0
Nghost:              0 ave           0 max           0 min
Histogram: 1 0 0 0 0 0 0 0 0 0
Neighs:            435 ave         435 max         435 min
Histogram: 1 0 0 0 0 0 0 0 0 0

Total # of neighbors = 435
Ave neighs/atom = 14.5
Neighbor list builds = 0
Dangerous builds = 0





# Deleting a fix by uid

unfix 469202603907010





# Deleting a fix by uid

unfix 569202603907006




variable E equal 0
variable Ex atom (0.003*(319.039+-320779.0*(x-0)+163840000.0*(x-0)^2+3188.37*(y-0)+-158115000.0*(y-0)^2+-0.483258*(z-0)+16206.1*(z-0)^2))*cos((2*3.141592653589793)*0.0071*step)
variable B equal 0
variable Ey atom (0.003*(-3.62944+3527.19*(x-0)+660075.0*(x-0)^2+320888.0*(y-0)+-1252000.0*(y-0)^2+1.91814*(z-0)+13573.5*(z-0)^2))*cos((2*3.141592653589793)*0.0071*step)
variable C equal 0
variable Ez atom (0.003*(0.00111849+-0.582074*(x-0)+-789.5*(x-0)^2+2.08274*(y-0)+1408.33*(y-0)^2+-57.5482*(z-0)+153.512*(z-0)^2))*cos((2*3.141592653589793)*0.0071*step)
fix 469202603907011 all efield v_Ex v_Ey v_Ez



timestep 1e-08


# Run simulation

run 1000
Generated 0 of 1 mixed pair_coeff terms from geometric mixing rule
WARNING: Proc sub-domain size < neighbor skin, could lead to lost atoms (src/domain.cpp:970)
Per MPI rank memory allocation (min/avg/max) = 5.282 | 5.282 | 5.282 Mbytes
   Step          CPU      
     36000   0            
     37000   0.13666166   
Loop time of 0.136681 on 1 procs for 1000 steps with 30 atoms

96.3% CPU use with 1 MPI tasks x no OpenMP threads

MPI task timing breakdown:
Section |  min time  |  avg time  |  max time  |%varavg| %total
---------------------------------------------------------------
Pair    | 0.0052775  | 0.0052775  | 0.0052775  |   0.0 |  3.86
Neigh   | 0          | 0          | 0          |   0.0 |  0.00
Comm    | 0.00021269 | 0.00021269 | 0.00021269 |   0.0 |  0.16
Output  | 0.0087715  | 0.0087715  | 0.0087715  |   0.0 |  6.42
Modify  | 0.12198    | 0.12198    | 0.12198    |   0.0 | 89.24
Other   |            | 0.0004404  |            |       |  0.32

Nlocal:             30 ave          30 max          30 min
Histogram: 1 0 0 0 0 0 0 0 0 0
Nghost:              0 ave           0 max           0 min
Histogram: 1 0 0 0 0 0 0 0 0 0
Neighs:            435 ave         435 max         435 min
Histogram: 1 0 0 0 0 0 0 0 0 0

Total # of neighbors = 435
Ave neighs/atom = 14.5
Neighbor list builds = 0
Dangerous builds = 0




timestep 1e-09


# Run simulation

run 1000
Generated 0 of 1 mixed pair_coeff terms from geometric mixing rule
WARNING: Proc sub-domain size < neighbor skin, could lead to lost atoms (src/domain.cpp:970)
Per MPI rank memory allocation (min/avg/max) = 5.282 | 5.282 | 5.282 Mbytes
   Step          CPU      
     37000   0            
     38000   0.13310831   
Loop time of 0.133128 on 1 procs for 1000 steps with 30 atoms

95.8% CPU use with 1 MPI tasks x no OpenMP threads

MPI task timing breakdown:
Section |  min time  |  avg time  |  max time  |%varavg| %total
---------------------------------------------------------------
Pair    | 0.0051038  | 0.0051038  | 0.0051038  |   0.0 |  3.83
Neigh   | 0          | 0          | 0          |   0.0 |  0.00
Comm    | 0.00017086 | 0.00017086 | 0.00017086 |   0.0 |  0.13
Output  | 0.0087768  | 0.0087768  | 0.0087768  |   0.0 |  6.59
Modify  | 0.11873    | 0.11873    | 0.11873    |   0.0 | 89.19
Other   |            | 0.0003426  |            |       |  0.26

Nlocal:             30 ave          30 max          30 min
Histogram: 1 0 0 0 0 0 0 0 0 0
Nghost:              0 ave           0 max           0 min
Histogram: 1 0 0 0 0 0 0 0 0 0
Neighs:            435 ave         435 max         435 min
Histogram: 1 0 0 0 0 0 0 0 0 0

Total # of neighbors = 435
Ave neighs/atom = 14.5
Neighbor list builds = 0
Dangerous builds = 0




variable coolx atom (9.269386030594033e-20+(2.703426035144626e-21*vx))*-0.5000000000000001
variable cooly atom (9.269386030594033e-20+2.703426035144626e-21*vy)*-0.5000000000000001
variable coolz atom (9.269386030594033e-20+2.703426035144626e-21*vz)*-0.7071067811865476
fix 569202603907007 1 addforce v_coolx v_cooly v_coolz



timestep 1e-08


# Run simulation

run 2000
Generated 0 of 1 mixed pair_coeff terms from geometric mixing rule
WARNING: Proc sub-domain size < neighbor skin, could lead to lost atoms (src/domain.cpp:970)
Per MPI rank memory allocation (min/avg/max) = 5.782 | 5.782 | 5.782 Mbytes
   Step          CPU      
     38000   0            
     40000   0.29441401   
Loop time of 0.294433 on 1 procs for 2000 steps with 30 atoms

96.9% CPU use with 1 MPI tasks x no OpenMP threads

MPI task timing breakdown:
Section |  min time  |  avg time  |  max time  |%varavg| %total
---------------------------------------------------------------
Pair    | 0.010454   | 0.010454   | 0.010454   |   0.0 |  3.55
Neigh   | 0          | 0          | 0          |   0.0 |  0.00
Comm    | 0.0003664  | 0.0003664  | 0.0003664  |   0.0 |  0.12
Output  | 0.015038   | 0.015038   | 0.015038   |   0.0 |  5.11
Modify  | 0.26792    | 0.26792    | 0.26792    |   0.0 | 91.00
Other   |            | 0.0006521  |            |       |  0.22

Nlocal:             30 ave          30 max          30 min
Histogram: 1 0 0 0 0 0 0 0 0 0
Nghost:              0 ave           0 max           0 min
Histogram: 1 0 0 0 0 0 0 0 0 0
Neighs:            435 ave         435 max         435 min
Histogram: 1 0 0 0 0 0 0 0 0 0

Total # of neighbors = 435
Ave neighs/atom = 14.5
Neighbor list builds = 0
Dangerous builds = 0





# Deleting a fix by uid

unfix 469202603907011





# Deleting a fix by uid

unfix 569202603907007




variable E equal 0
variable Ex atom (0.003*(319.039+-320779.0*(x-0)+163840000.0*(x-0)^2+3188.37*(y-0)+-158115000.0*(y-0)^2+-0.483258*(z-0)+16206.1*(z-0)^2))*cos((2*3.141592653589793)*0.00715*step)
variable B equal 0
variable Ey atom (0.003*(-3.62944+3527.19*(x-0)+660075.0*(x-0)^2+320888.0*(y-0)+-1252000.0*(y-0)^2+1.91814*(z-0)+13573.5*(z-0)^2))*cos((2*3.141592653589793)*0.00715*step)
variable C equal 0
variable Ez atom (0.003*(0.00111849+-0.582074*(x-0)+-789.5*(x-0)^2+2.08274*(y-0)+1408.33*(y-0)^2+-57.5482*(z-0)+153.512*(z-0)^2))*cos((2*3.141592653589793)*0.00715*step)
fix 469202603907012 all efield v_Ex v_Ey v_Ez



timestep 1e-08


# Run simulation

run 1000
Generated 0 of 1 mixed pair_coeff terms from geometric mixing rule
WARNING: Proc sub-domain size < neighbor skin, could lead to lost atoms (src/domain.cpp:970)
Per MPI rank memory allocation (min/avg/max) = 5.282 | 5.282 | 5.282 Mbytes
   Step          CPU      
     40000   0            
     41000   0.13190207   
Loop time of 0.13192 on 1 procs for 1000 steps with 30 atoms

96.8% CPU use with 1 MPI tasks x no OpenMP threads

MPI task timing breakdown:
Section |  min time  |  avg time  |  max time  |%varavg| %total
---------------------------------------------------------------
Pair    | 0.0051904  | 0.0051904  | 0.0051904  |   0.0 |  3.93
Neigh   | 0          | 0          | 0          |   0.0 |  0.00
Comm    | 0.00016955 | 0.00016955 | 0.00016955 |   0.0 |  0.13
Output  | 0.0074495  | 0.0074495  | 0.0074495  |   0.0 |  5.65
Modify  | 0.11881    | 0.11881    | 0.11881    |   0.0 | 90.06
Other   |            | 0.0003025  |            |       |  0.23

Nlocal:             30 ave          30 max          30 min
Histogram: 1 0 0 0 0 0 0 0 0 0
Nghost:              0 ave           0 max           0 min
Histogram: 1 0 0 0 0 0 0 0 0 0
Neighs:            435 ave         435 max         435 min
Histogram: 1 0 0 0 0 0 0 0 0 0

Total # of neighbors = 435
Ave neighs/atom = 14.5
Neighbor list builds = 0
Dangerous builds = 0




timestep 1e-09


# Run simulation

run 1000
Generated 0 of 1 mixed pair_coeff terms from geometric mixing rule
WARNING: Proc sub-domain size < neighbor skin, could lead to lost atoms (src/domain.cpp:970)
Per MPI rank memory allocation (min/avg/max) = 5.282 | 5.282 | 5.282 Mbytes
   Step          CPU      
     41000   0            
     42000   0.13103512   
Loop time of 0.131054 on 1 procs for 1000 steps with 30 atoms

97.2% CPU use with 1 MPI tasks x no OpenMP threads

MPI task timing breakdown:
Section |  min time  |  avg time  |  max time  |%varavg| %total
---------------------------------------------------------------
Pair    | 0.0051711  | 0.0051711  | 0.0051711  |   0.0 |  3.95
Neigh   | 0          | 0          | 0          |   0.0 |  0.00
Comm    | 0.00016616 | 0.00016616 | 0.00016616 |   0.0 |  0.13
Output  | 0.0071267  | 0.0071267  | 0.0071267  |   0.0 |  5.44
Modify  | 0.11829    | 0.11829    | 0.11829    |   0.0 | 90.26
Other   |            | 0.0003021  |            |       |  0.23

Nlocal:             30 ave          30 max          30 min
Histogram: 1 0 0 0 0 0 0 0 0 0
Nghost:              0 ave           0 max           0 min
Histogram: 1 0 0 0 0 0 0 0 0 0
Neighs:            435 ave         435 max         435 min
Histogram: 1 0 0 0 0 0 0 0 0 0

Total # of neighbors = 435
Ave neighs/atom = 14.5
Neighbor list builds = 0
Dangerous builds = 0




variable coolx atom (9.269386030594033e-20+(2.703426035144626e-21*vx))*-0.5000000000000001
variable cooly atom (9.269386030594033e-20+2.703426035144626e-21*vy)*-0.5000000000000001
variable coolz atom (9.269386030594033e-20+2.703426035144626e-21*vz)*-0.7071067811865476
fix 569202603907008 1 addforce v_coolx v_cooly v_coolz



timestep 1e-08


# Run simulation

run 2000
Generated 0 of 1 mixed pair_coeff terms from geometric mixing rule
WARNING: Proc sub-domain size < neighbor skin, could lead to lost atoms (src/domain.cpp:970)
Per MPI rank memory allocation (min/avg/max) = 5.782 | 5.782 | 5.782 Mbytes
   Step          CPU      
     42000   0            
     44000   0.29190658   
Loop time of 0.291925 on 1 procs for 2000 steps with 30 atoms

97.2% CPU use with 1 MPI tasks x no OpenMP threads

MPI task timing breakdown:
Section |  min time  |  avg time  |  max time  |%varavg| %total
---------------------------------------------------------------
Pair    | 0.010397   | 0.010397   | 0.010397   |   0.0 |  3.56
Neigh   | 0          | 0          | 0          |   0.0 |  0.00
Comm    | 0.00034241 | 0.00034241 | 0.00034241 |   0.0 |  0.12
Output  | 0.014577   | 0.014577   | 0.014577   |   0.0 |  4.99
Modify  | 0.26594    | 0.26594    | 0.26594    |   0.0 | 91.10
Other   |            | 0.0006713  |            |       |  0.23

Nlocal:             30 ave          30 max          30 min
Histogram: 1 0 0 0 0 0 0 0 0 0
Nghost:              0 ave           0 max           0 min
Histogram: 1 0 0 0 0 0 0 0 0 0
Neighs:            435 ave         435 max         435 min
Histogram: 1 0 0 0 0 0 0 0 0 0

Total # of neighbors = 435
Ave neighs/atom = 14.5
Neighbor list builds = 0
Dangerous builds = 0





# Deleting a fix by uid

unfix 469202603907012





# Deleting a fix by uid

unfix 569202603907008




variable E equal 0
variable Ex atom (0.003*(319.039+-320779.0*(x-0)+163840000.0*(x-0)^2+3188.37*(y-0)+-158115000.0*(y-0)^2+-0.483258*(z-0)+16206.1*(z-0)^2))*cos((2*3.141592653589793)*0.0072*step)
variable B equal 0
variable Ey atom (0.003*(-3.62944+3527.19*(x-0)+660075.0*(x-0)^2+320888.0*(y-0)+-1252000.0*(y-0)^2+1.91814*(z-0)+13573.5*(z-0)^2))*cos((2*3.141592653589793)*0.0072*step)
variable C equal 0
variable Ez atom (0.003*(0.00111849+-0.582074*(x-0)+-789.5*(x-0)^2+2.08274*(y-0)+1408.33*(y-0)^2+-57.5482*(z-0)+153.512*(z-0)^2))*cos((2*3.141592653589793)*0.0072*step)
fix 469202603907013 all efield v_Ex v_Ey v_Ez



timestep 1e-08


# Run simulation

run 1000
Generated 0 of 1 mixed pair_coeff terms from geometric mixing rule
WARNING: Proc sub-domain size < neighbor skin, could lead to lost atoms (src/domain.cpp:970)
Per MPI rank memory allocation (min/avg/max) = 5.282 | 5.282 | 5.282 Mbytes
   Step          CPU      
     44000   0            
     45000   0.13091779   
Loop time of 0.130937 on 1 procs for 1000 steps with 30 atoms

96.8% CPU use with 1 MPI tasks x no OpenMP threads

MPI task timing breakdown:
Section |  min time  |  avg time  |  max time  |%varavg| %total
---------------------------------------------------------------
Pair    | 0.0051219  | 0.0051219  | 0.0051219  |   0.0 |  3.91
Neigh   | 0          | 0          | 0          |   0.0 |  0.00
Comm    | 0.00018403 | 0.00018403 | 0.00018403 |   0.0 |  0.14
Output  | 0.0074045  | 0.0074045  | 0.0074045  |   0.0 |  5.66
Modify  | 0.11788    | 0.11788    | 0.11788    |   0.0 | 90.03
Other   |            | 0.0003465  |            |       |  0.26

Nlocal:             30 ave          30 max          30 min
Histogram: 1 0 0 0 0 0 0 0 0 0
Nghost:              0 ave           0 max           0 min
Histogram: 1 0 0 0 0 0 0 0 0 0
Neighs:            435 ave         435 max         435 min
Histogram: 1 0 0 0 0 0 0 0 0 0

Total # of neighbors = 435
Ave neighs/atom = 14.5
Neighbor list builds = 0
Dangerous builds = 0




timestep 1e-09


# Run simulation

run 1000
Generated 0 of 1 mixed pair_coeff terms from geometric mixing rule
WARNING: Proc sub-domain size < neighbor skin, could lead to lost atoms (src/domain.cpp:970)
Per MPI rank memory allocation (min/avg/max) = 5.282 | 5.282 | 5.282 Mbytes
   Step          CPU      
     45000   0            
     46000   0.13091994   
Loop time of 0.130976 on 1 procs for 1000 steps with 30 atoms

97.5% CPU use with 1 MPI tasks x no OpenMP threads

MPI task timing breakdown:
Section |  min time  |  avg time  |  max time  |%varavg| %total
---------------------------------------------------------------
Pair    | 0.0051933  | 0.0051933  | 0.0051933  |   0.0 |  3.97
Neigh   | 0          | 0          | 0          |   0.0 |  0.00
Comm    | 0.00017282 | 0.00017282 | 0.00017282 |   0.0 |  0.13
Output  | 0.0073926  | 0.0073926  | 0.0073926  |   0.0 |  5.64
Modify  | 0.1179     | 0.1179     | 0.1179     |   0.0 | 90.02
Other   |            | 0.0003164  |            |       |  0.24

Nlocal:             30 ave          30 max          30 min
Histogram: 1 0 0 0 0 0 0 0 0 0
Nghost:              0 ave           0 max           0 min
Histogram: 1 0 0 0 0 0 0 0 0 0
Neighs:            435 ave         435 max         435 min
Histogram: 1 0 0 0 0 0 0 0 0 0

Total # of neighbors = 435
Ave neighs/atom = 14.5
Neighbor list builds = 0
Dangerous builds = 0




variable coolx atom (9.269386030594033e-20+(2.703426035144626e-21*vx))*-0.5000000000000001
variable cooly atom (9.269386030594033e-20+2.703426035144626e-21*vy)*-0.5000000000000001
variable coolz atom (9.269386030594033e-20+2.703426035144626e-21*vz)*-0.7071067811865476
fix 569202603907009 1 addforce v_coolx v_cooly v_coolz



timestep 1e-08


# Run simulation

run 2000
Generated 0 of 1 mixed pair_coeff terms from geometric mixing rule
WARNING: Proc sub-domain size < neighbor skin, could lead to lost atoms (src/domain.cpp:970)
Per MPI rank memory allocation (min/avg/max) = 5.782 | 5.782 | 5.782 Mbytes
   Step          CPU      
     46000   0            
     48000   0.30573892   
Loop time of 0.305774 on 1 procs for 2000 steps with 30 atoms

96.4% CPU use with 1 MPI tasks x no OpenMP threads

MPI task timing breakdown:
Section |  min time  |  avg time  |  max time  |%varavg| %total
---------------------------------------------------------------
Pair    | 0.011105   | 0.011105   | 0.011105   |   0.0 |  3.63
Neigh   | 0          | 0          | 0          |   0.0 |  0.00
Comm    | 0.00036377 | 0.00036377 | 0.00036377 |   0.0 |  0.12
Output  | 0.017279   | 0.017279   | 0.017279   |   0.0 |  5.65
Modify  | 0.2763     | 0.2763     | 0.2763     |   0.0 | 90.36
Other   |            | 0.0007278  |            |       |  0.24

Nlocal:             30 ave          30 max          30 min
Histogram: 1 0 0 0 0 0 0 0 0 0
Nghost:              0 ave           0 max           0 min
Histogram: 1 0 0 0 0 0 0 0 0 0
Neighs:            435 ave         435 max         435 min
Histogram: 1 0 0 0 0 0 0 0 0 0

Total # of neighbors = 435
Ave neighs/atom = 14.5
Neighbor list builds = 0
Dangerous builds = 0





# Deleting a fix by uid

unfix 469202603907013





# Deleting a fix by uid

unfix 569202603907009




variable E equal 0
variable Ex atom (0.003*(319.039+-320779.0*(x-0)+163840000.0*(x-0)^2+3188.37*(y-0)+-158115000.0*(y-0)^2+-0.483258*(z-0)+16206.1*(z-0)^2))*cos((2*3.141592653589793)*0.00725*step)
variable B equal 0
variable Ey atom (0.003*(-3.62944+3527.19*(x-0)+660075.0*(x-0)^2+320888.0*(y-0)+-1252000.0*(y-0)^2+1.91814*(z-0)+13573.5*(z-0)^2))*cos((2*3.141592653589793)*0.00725*step)
variable C equal 0
variable Ez atom (0.003*(0.00111849+-0.582074*(x-0)+-789.5*(x-0)^2+2.08274*(y-0)+1408.33*(y-0)^2+-57.5482*(z-0)+153.512*(z-0)^2))*cos((2*3.141592653589793)*0.00725*step)
fix 469202603907014 all efield v_Ex v_Ey v_Ez



timestep 1e-08


# Run simulation

run 1000
Generated 0 of 1 mixed pair_coeff terms from geometric mixing rule
WARNING: Proc sub-domain size < neighbor skin, could lead to lost atoms (src/domain.cpp:970)
Per MPI rank memory allocation (min/avg/max) = 5.282 | 5.282 | 5.282 Mbytes
   Step          CPU      
     48000   0            
     49000   0.16707182   
Loop time of 0.167093 on 1 procs for 1000 steps with 30 atoms

80.7% CPU use with 1 MPI tasks x no OpenMP threads

MPI task timing breakdown:
Section |  min time  |  avg time  |  max time  |%varavg| %total
---------------------------------------------------------------
Pair    | 0.0056958  | 0.0056958  | 0.0056958  |   0.0 |  3.41
Neigh   | 0          | 0          | 0          |   0.0 |  0.00
Comm    | 0.0001982  | 0.0001982  | 0.0001982  |   0.0 |  0.12
Output  | 0.036072   | 0.036072   | 0.036072   |   0.0 | 21.59
Modify  | 0.12475    | 0.12475    | 0.12475    |   0.0 | 74.66
Other   |            | 0.0003759  |            |       |  0.22

Nlocal:             30 ave          30 max          30 min
Histogram: 1 0 0 0 0 0 0 0 0 0
Nghost:              0 ave           0 max           0 min
Histogram: 1 0 0 0 0 0 0 0 0 0
Neighs:            435 ave         435 max         435 min
Histogram: 1 0 0 0 0 0 0 0 0 0

Total # of neighbors = 435
Ave neighs/atom = 14.5
Neighbor list builds = 0
Dangerous builds = 0




timestep 1e-09


# Run simulation

run 1000
Generated 0 of 1 mixed pair_coeff terms from geometric mixing rule
WARNING: Proc sub-domain size < neighbor skin, could lead to lost atoms (src/domain.cpp:970)
Per MPI rank memory allocation (min/avg/max) = 5.282 | 5.282 | 5.282 Mbytes
   Step          CPU      
     49000   0            
     50000   0.13007335   
Loop time of 0.130092 on 1 procs for 1000 steps with 30 atoms

97.0% CPU use with 1 MPI tasks x no OpenMP threads

MPI task timing breakdown:
Section |  min time  |  avg time  |  max time  |%varavg| %total
---------------------------------------------------------------
Pair    | 0.005105   | 0.005105   | 0.005105   |   0.0 |  3.92
Neigh   | 0          | 0          | 0          |   0.0 |  0.00
Comm    | 0.00016556 | 0.00016556 | 0.00016556 |   0.0 |  0.13
Output  | 0.0075227  | 0.0075227  | 0.0075227  |   0.0 |  5.78
Modify  | 0.11698    | 0.11698    | 0.11698    |   0.0 | 89.92
Other   |            | 0.0003189  |            |       |  0.25

Nlocal:             30 ave          30 max          30 min
Histogram: 1 0 0 0 0 0 0 0 0 0
Nghost:              0 ave           0 max           0 min
Histogram: 1 0 0 0 0 0 0 0 0 0
Neighs:            435 ave         435 max         435 min
Histogram: 1 0 0 0 0 0 0 0 0 0

Total # of neighbors = 435
Ave neighs/atom = 14.5
Neighbor list builds = 0
Dangerous builds = 0




variable coolx atom (9.269386030594033e-20+(2.703426035144626e-21*vx))*-0.5000000000000001
variable cooly atom (9.269386030594033e-20+2.703426035144626e-21*vy)*-0.5000000000000001
variable coolz atom (9.269386030594033e-20+2.703426035144626e-21*vz)*-0.7071067811865476
fix 569202603907010 1 addforce v_coolx v_cooly v_coolz



timestep 1e-08


# Run simulation

run 2000
Generated 0 of 1 mixed pair_coeff terms from geometric mixing rule
WARNING: Proc sub-domain size < neighbor skin, could lead to lost atoms (src/domain.cpp:970)
Per MPI rank memory allocation (min/avg/max) = 5.782 | 5.782 | 5.782 Mbytes
   Step          CPU      
     50000   0            
     52000   0.29409767   
Loop time of 0.294117 on 1 procs for 2000 steps with 30 atoms

96.7% CPU use with 1 MPI tasks x no OpenMP threads

MPI task timing breakdown:
Section |  min time  |  avg time  |  max time  |%varavg| %total
---------------------------------------------------------------
Pair    | 0.010396   | 0.010396   | 0.010396   |   0.0 |  3.53
Neigh   | 0          | 0          | 0          |   0.0 |  0.00
Comm    | 0.00036556 | 0.00036556 | 0.00036556 |   0.0 |  0.12
Output  | 0.015799   | 0.015799   | 0.015799   |   0.0 |  5.37
Modify  | 0.26686    | 0.26686    | 0.26686    |   0.0 | 90.73
Other   |            | 0.0006971  |            |       |  0.24

Nlocal:             30 ave          30 max          30 min
Histogram: 1 0 0 0 0 0 0 0 0 0
Nghost:              0 ave           0 max           0 min
Histogram: 1 0 0 0 0 0 0 0 0 0
Neighs:            435 ave         435 max         435 min
Histogram: 1 0 0 0 0 0 0 0 0 0

Total # of neighbors = 435
Ave neighs/atom = 14.5
Neighbor list builds = 0
Dangerous builds = 0





# Deleting a fix by uid

unfix 469202603907014





# Deleting a fix by uid

unfix 569202603907010




variable E equal 0
variable Ex atom (0.003*(319.039+-320779.0*(x-0)+163840000.0*(x-0)^2+3188.37*(y-0)+-158115000.0*(y-0)^2+-0.483258*(z-0)+16206.1*(z-0)^2))*cos((2*3.141592653589793)*0.0073*step)
variable B equal 0
variable Ey atom (0.003*(-3.62944+3527.19*(x-0)+660075.0*(x-0)^2+320888.0*(y-0)+-1252000.0*(y-0)^2+1.91814*(z-0)+13573.5*(z-0)^2))*cos((2*3.141592653589793)*0.0073*step)
variable C equal 0
variable Ez atom (0.003*(0.00111849+-0.582074*(x-0)+-789.5*(x-0)^2+2.08274*(y-0)+1408.33*(y-0)^2+-57.5482*(z-0)+153.512*(z-0)^2))*cos((2*3.141592653589793)*0.0073*step)
fix 469202603907015 all efield v_Ex v_Ey v_Ez



timestep 1e-08


# Run simulation

run 1000
Generated 0 of 1 mixed pair_coeff terms from geometric mixing rule
WARNING: Proc sub-domain size < neighbor skin, could lead to lost atoms (src/domain.cpp:970)
Per MPI rank memory allocation (min/avg/max) = 5.282 | 5.282 | 5.282 Mbytes
   Step          CPU      
     52000   0            
     53000   0.12915334   
Loop time of 0.12917 on 1 procs for 1000 steps with 30 atoms

97.4% CPU use with 1 MPI tasks x no OpenMP threads

MPI task timing breakdown:
Section |  min time  |  avg time  |  max time  |%varavg| %total
---------------------------------------------------------------
Pair    | 0.0050932  | 0.0050932  | 0.0050932  |   0.0 |  3.94
Neigh   | 0          | 0          | 0          |   0.0 |  0.00
Comm    | 0.00016774 | 0.00016774 | 0.00016774 |   0.0 |  0.13
Output  | 0.0070566  | 0.0070566  | 0.0070566  |   0.0 |  5.46
Modify  | 0.11653    | 0.11653    | 0.11653    |   0.0 | 90.22
Other   |            | 0.0003212  |            |       |  0.25

Nlocal:             30 ave          30 max          30 min
Histogram: 1 0 0 0 0 0 0 0 0 0
Nghost:              0 ave           0 max           0 min
Histogram: 1 0 0 0 0 0 0 0 0 0
Neighs:            435 ave         435 max         435 min
Histogram: 1 0 0 0 0 0 0 0 0 0

Total # of neighbors = 435
Ave neighs/atom = 14.5
Neighbor list builds = 0
Dangerous builds = 0




timestep 1e-09


# Run simulation

run 1000
Generated 0 of 1 mixed pair_coeff terms from geometric mixing rule
WARNING: Proc sub-domain size < neighbor skin, could lead to lost atoms (src/domain.cpp:970)
Per MPI rank memory allocation (min/avg/max) = 5.282 | 5.282 | 5.282 Mbytes
   Step          CPU      
     53000   0            
     54000   0.1320159    
Loop time of 0.132036 on 1 procs for 1000 steps with 30 atoms

96.6% CPU use with 1 MPI tasks x no OpenMP threads

MPI task timing breakdown:
Section |  min time  |  avg time  |  max time  |%varavg| %total
---------------------------------------------------------------
Pair    | 0.0052037  | 0.0052037  | 0.0052037  |   0.0 |  3.94
Neigh   | 0          | 0          | 0          |   0.0 |  0.00
Comm    | 0.0001911  | 0.0001911  | 0.0001911  |   0.0 |  0.14
Output  | 0.0076564  | 0.0076564  | 0.0076564  |   0.0 |  5.80
Modify  | 0.11865    | 0.11865    | 0.11865    |   0.0 | 89.86
Other   |            | 0.0003359  |            |       |  0.25

Nlocal:             30 ave          30 max          30 min
Histogram: 1 0 0 0 0 0 0 0 0 0
Nghost:              0 ave           0 max           0 min
Histogram: 1 0 0 0 0 0 0 0 0 0
Neighs:            435 ave         435 max         435 min
Histogram: 1 0 0 0 0 0 0 0 0 0

Total # of neighbors = 435
Ave neighs/atom = 14.5
Neighbor list builds = 0
Dangerous builds = 0




variable coolx atom (9.269386030594033e-20+(2.703426035144626e-21*vx))*-0.5000000000000001
variable cooly atom (9.269386030594033e-20+2.703426035144626e-21*vy)*-0.5000000000000001
variable coolz atom (9.269386030594033e-20+2.703426035144626e-21*vz)*-0.7071067811865476
fix 569202603907011 1 addforce v_coolx v_cooly v_coolz



timestep 1e-08


# Run simulation

run 2000
Generated 0 of 1 mixed pair_coeff terms from geometric mixing rule
WARNING: Proc sub-domain size < neighbor skin, could lead to lost atoms (src/domain.cpp:970)
Per MPI rank memory allocation (min/avg/max) = 5.782 | 5.782 | 5.782 Mbytes
   Step          CPU      
     54000   0            
     56000   0.29309874   
Loop time of 0.293119 on 1 procs for 2000 steps with 30 atoms

96.9% CPU use with 1 MPI tasks x no OpenMP threads

MPI task timing breakdown:
Section |  min time  |  avg time  |  max time  |%varavg| %total
---------------------------------------------------------------
Pair    | 0.010372   | 0.010372   | 0.010372   |   0.0 |  3.54
Neigh   | 0          | 0          | 0          |   0.0 |  0.00
Comm    | 0.000425   | 0.000425   | 0.000425   |   0.0 |  0.14
Output  | 0.014972   | 0.014972   | 0.014972   |   0.0 |  5.11
Modify  | 0.26661    | 0.26661    | 0.26661    |   0.0 | 90.96
Other   |            | 0.0007423  |            |       |  0.25

Nlocal:             30 ave          30 max          30 min
Histogram: 1 0 0 0 0 0 0 0 0 0
Nghost:              0 ave           0 max           0 min
Histogram: 1 0 0 0 0 0 0 0 0 0
Neighs:            435 ave         435 max         435 min
Histogram: 1 0 0 0 0 0 0 0 0 0

Total # of neighbors = 435
Ave neighs/atom = 14.5
Neighbor list builds = 0
Dangerous builds = 0





# Deleting a fix by uid

unfix 469202603907015





# Deleting a fix by uid

unfix 569202603907011




variable E equal 0
variable Ex atom (0.003*(319.039+-320779.0*(x-0)+163840000.0*(x-0)^2+3188.37*(y-0)+-158115000.0*(y-0)^2+-0.483258*(z-0)+16206.1*(z-0)^2))*cos((2*3.141592653589793)*0.007500000000000001*step)
variable B equal 0
variable Ey atom (0.003*(-3.62944+3527.19*(x-0)+660075.0*(x-0)^2+320888.0*(y-0)+-1252000.0*(y-0)^2+1.91814*(z-0)+13573.5*(z-0)^2))*cos((2*3.141592653589793)*0.007500000000000001*step)
variable C equal 0
variable Ez atom (0.003*(0.00111849+-0.582074*(x-0)+-789.5*(x-0)^2+2.08274*(y-0)+1408.33*(y-0)^2+-57.5482*(z-0)+153.512*(z-0)^2))*cos((2*3.141592653589793)*0.007500000000000001*step)
fix 469202603907016 all efield v_Ex v_Ey v_Ez



timestep 1e-08


# Run simulation

run 1000
Generated 0 of 1 mixed pair_coeff terms from geometric mixing rule
WARNING: Proc sub-domain size < neighbor skin, could lead to lost atoms (src/domain.cpp:970)
Per MPI rank memory allocation (min/avg/max) = 5.282 | 5.282 | 5.282 Mbytes
   Step          CPU      
     56000   0            
     57000   0.13140419   
Loop time of 0.131423 on 1 procs for 1000 steps with 30 atoms

97.4% CPU use with 1 MPI tasks x no OpenMP threads

MPI task timing breakdown:
Section |  min time  |  avg time  |  max time  |%varavg| %total
---------------------------------------------------------------
Pair    | 0.0051893  | 0.0051893  | 0.0051893  |   0.0 |  3.95
Neigh   | 0          | 0          | 0          |   0.0 |  0.00
Comm    | 0.00019519 | 0.00019519 | 0.00019519 |   0.0 |  0.15
Output  | 0.0071874  | 0.0071874  | 0.0071874  |   0.0 |  5.47
Modify  | 0.11855    | 0.11855    | 0.11855    |   0.0 | 90.21
Other   |            | 0.0003001  |            |       |  0.23

Nlocal:             30 ave          30 max          30 min
Histogram: 1 0 0 0 0 0 0 0 0 0
Nghost:              0 ave           0 max           0 min
Histogram: 1 0 0 0 0 0 0 0 0 0
Neighs:            435 ave         435 max         435 min
Histogram: 1 0 0 0 0 0 0 0 0 0

Total # of neighbors = 435
Ave neighs/atom = 14.5
Neighbor list builds = 0
Dangerous builds = 0




timestep 1e-09


# Run simulation

run 1000
Generated 0 of 1 mixed pair_coeff terms from geometric mixing rule
WARNING: Proc sub-domain size < neighbor skin, could lead to lost atoms (src/domain.cpp:970)
Per MPI rank memory allocation (min/avg/max) = 5.282 | 5.282 | 5.282 Mbytes
   Step          CPU      
     57000   0            
     58000   0.13400802   
Loop time of 0.134117 on 1 procs for 1000 steps with 30 atoms

96.9% CPU use with 1 MPI tasks x no OpenMP threads

MPI task timing breakdown:
Section |  min time  |  avg time  |  max time  |%varavg| %total
---------------------------------------------------------------
Pair    | 0.0051985  | 0.0051985  | 0.0051985  |   0.0 |  3.88
Neigh   | 0          | 0          | 0          |   0.0 |  0.00
Comm    | 0.00016899 | 0.00016899 | 0.00016899 |   0.0 |  0.13
Output  | 0.0073871  | 0.0073871  | 0.0073871  |   0.0 |  5.51
Modify  | 0.12107    | 0.12107    | 0.12107    |   0.0 | 90.27
Other   |            | 0.0002967  |            |       |  0.22

Nlocal:             30 ave          30 max          30 min
Histogram: 1 0 0 0 0 0 0 0 0 0
Nghost:              0 ave           0 max           0 min
Histogram: 1 0 0 0 0 0 0 0 0 0
Neighs:            435 ave         435 max         435 min
Histogram: 1 0 0 0 0 0 0 0 0 0

Total # of neighbors = 435
Ave neighs/atom = 14.5
Neighbor list builds = 0
Dangerous builds = 0




variable coolx atom (9.269386030594033e-20+(2.703426035144626e-21*vx))*-0.5000000000000001
variable cooly atom (9.269386030594033e-20+2.703426035144626e-21*vy)*-0.5000000000000001
variable coolz atom (9.269386030594033e-20+2.703426035144626e-21*vz)*-0.7071067811865476
fix 569202603907012 1 addforce v_coolx v_cooly v_coolz



timestep 1e-08


# Run simulation

run 2000
Generated 0 of 1 mixed pair_coeff terms from geometric mixing rule
WARNING: Proc sub-domain size < neighbor skin, could lead to lost atoms (src/domain.cpp:970)
Per MPI rank memory allocation (min/avg/max) = 5.782 | 5.782 | 5.782 Mbytes
   Step          CPU      
     58000   0            
     60000   0.29802479   
Loop time of 0.298042 on 1 procs for 2000 steps with 30 atoms

97.0% CPU use with 1 MPI tasks x no OpenMP threads

MPI task timing breakdown:
Section |  min time  |  avg time  |  max time  |%varavg| %total
---------------------------------------------------------------
Pair    | 0.010673   | 0.010673   | 0.010673   |   0.0 |  3.58
Neigh   | 0          | 0          | 0          |   0.0 |  0.00
Comm    | 0.00033155 | 0.00033155 | 0.00033155 |   0.0 |  0.11
Output  | 0.015332   | 0.015332   | 0.015332   |   0.0 |  5.14
Modify  | 0.27109    | 0.27109    | 0.27109    |   0.0 | 90.96
Other   |            | 0.000613   |            |       |  0.21

Nlocal:             30 ave          30 max          30 min
Histogram: 1 0 0 0 0 0 0 0 0 0
Nghost:              0 ave           0 max           0 min
Histogram: 1 0 0 0 0 0 0 0 0 0
Neighs:            435 ave         435 max         435 min
Histogram: 1 0 0 0 0 0 0 0 0 0

Total # of neighbors = 435
Ave neighs/atom = 14.5
Neighbor list builds = 0
Dangerous builds = 0





# Deleting a fix by uid

unfix 469202603907016





# Deleting a fix by uid

unfix 569202603907012




variable E equal 0
variable Ex atom (0.003*(319.039+-320779.0*(x-0)+163840000.0*(x-0)^2+3188.37*(y-0)+-158115000.0*(y-0)^2+-0.483258*(z-0)+16206.1*(z-0)^2))*cos((2*3.141592653589793)*0.008*step)
variable B equal 0
variable Ey atom (0.003*(-3.62944+3527.19*(x-0)+660075.0*(x-0)^2+320888.0*(y-0)+-1252000.0*(y-0)^2+1.91814*(z-0)+13573.5*(z-0)^2))*cos((2*3.141592653589793)*0.008*step)
variable C equal 0
variable Ez atom (0.003*(0.00111849+-0.582074*(x-0)+-789.5*(x-0)^2+2.08274*(y-0)+1408.33*(y-0)^2+-57.5482*(z-0)+153.512*(z-0)^2))*cos((2*3.141592653589793)*0.008*step)
fix 469202603907017 all efield v_Ex v_Ey v_Ez



timestep 1e-08


# Run simulation

run 1000
Generated 0 of 1 mixed pair_coeff terms from geometric mixing rule
WARNING: Proc sub-domain size < neighbor skin, could lead to lost atoms (src/domain.cpp:970)
Per MPI rank memory allocation (min/avg/max) = 5.282 | 5.282 | 5.282 Mbytes
   Step          CPU      
     60000   0            
     61000   0.13320483   
Loop time of 0.133277 on 1 procs for 1000 steps with 30 atoms

96.4% CPU use with 1 MPI tasks x no OpenMP threads

MPI task timing breakdown:
Section |  min time  |  avg time  |  max time  |%varavg| %total
---------------------------------------------------------------
Pair    | 0.0052961  | 0.0052961  | 0.0052961  |   0.0 |  3.97
Neigh   | 0          | 0          | 0          |   0.0 |  0.00
Comm    | 0.00018293 | 0.00018293 | 0.00018293 |   0.0 |  0.14
Output  | 0.0078404  | 0.0078404  | 0.0078404  |   0.0 |  5.88
Modify  | 0.11964    | 0.11964    | 0.11964    |   0.0 | 89.77
Other   |            | 0.0003205  |            |       |  0.24

Nlocal:             30 ave          30 max          30 min
Histogram: 1 0 0 0 0 0 0 0 0 0
Nghost:              0 ave           0 max           0 min
Histogram: 1 0 0 0 0 0 0 0 0 0
Neighs:            435 ave         435 max         435 min
Histogram: 1 0 0 0 0 0 0 0 0 0

Total # of neighbors = 435
Ave neighs/atom = 14.5
Neighbor list builds = 0
Dangerous builds = 0




timestep 1e-09


# Run simulation

run 1000
Generated 0 of 1 mixed pair_coeff terms from geometric mixing rule
WARNING: Proc sub-domain size < neighbor skin, could lead to lost atoms (src/domain.cpp:970)
Per MPI rank memory allocation (min/avg/max) = 5.282 | 5.282 | 5.282 Mbytes
   Step          CPU      
     61000   0            
     62000   0.12913488   
Loop time of 0.129153 on 1 procs for 1000 steps with 30 atoms

97.3% CPU use with 1 MPI tasks x no OpenMP threads

MPI task timing breakdown:
Section |  min time  |  avg time  |  max time  |%varavg| %total
---------------------------------------------------------------
Pair    | 0.0050961  | 0.0050961  | 0.0050961  |   0.0 |  3.95
Neigh   | 0          | 0          | 0          |   0.0 |  0.00
Comm    | 0.00016328 | 0.00016328 | 0.00016328 |   0.0 |  0.13
Output  | 0.0069077  | 0.0069077  | 0.0069077  |   0.0 |  5.35
Modify  | 0.11669    | 0.11669    | 0.11669    |   0.0 | 90.35
Other   |            | 0.0002935  |            |       |  0.23

Nlocal:             30 ave          30 max          30 min
Histogram: 1 0 0 0 0 0 0 0 0 0
Nghost:              0 ave           0 max           0 min
Histogram: 1 0 0 0 0 0 0 0 0 0
Neighs:            435 ave         435 max         435 min
Histogram: 1 0 0 0 0 0 0 0 0 0

Total # of neighbors = 435
Ave neighs/atom = 14.5
Neighbor list builds = 0
Dangerous builds = 0




variable coolx atom (9.269386030594033e-20+(2.703426035144626e-21*vx))*-0.5000000000000001
variable cooly atom (9.269386030594033e-20+2.703426035144626e-21*vy)*-0.5000000000000001
variable coolz atom (9.269386030594033e-20+2.703426035144626e-21*vz)*-0.7071067811865476
fix 569202603907013 1 addforce v_coolx v_cooly v_coolz



timestep 1e-08


# Run simulation

run 2000
Generated 0 of 1 mixed pair_coeff terms from geometric mixing rule
WARNING: Proc sub-domain size < neighbor skin, could lead to lost atoms (src/domain.cpp:970)
Per MPI rank memory allocation (min/avg/max) = 5.782 | 5.782 | 5.782 Mbytes
   Step          CPU      
     62000   0            
     64000   0.29292725   
Loop time of 0.292944 on 1 procs for 2000 steps with 30 atoms

97.0% CPU use with 1 MPI tasks x no OpenMP threads

MPI task timing breakdown:
Section |  min time  |  avg time  |  max time  |%varavg| %total
---------------------------------------------------------------
Pair    | 0.01051    | 0.01051    | 0.01051    |   0.0 |  3.59
Neigh   | 0          | 0          | 0          |   0.0 |  0.00
Comm    | 0.000358   | 0.000358   | 0.000358   |   0.0 |  0.12
Output  | 0.015156   | 0.015156   | 0.015156   |   0.0 |  5.17
Modify  | 0.26627    | 0.26627    | 0.26627    |   0.0 | 90.89
Other   |            | 0.0006543  |            |       |  0.22

Nlocal:             30 ave          30 max          30 min
Histogram: 1 0 0 0 0 0 0 0 0 0
Nghost:              0 ave           0 max           0 min
Histogram: 1 0 0 0 0 0 0 0 0 0
Neighs:            435 ave         435 max         435 min
Histogram: 1 0 0 0 0 0 0 0 0 0

Total # of neighbors = 435
Ave neighs/atom = 14.5
Neighbor list builds = 0
Dangerous builds = 0





# Deleting a fix by uid

unfix 469202603907017





# Deleting a fix by uid

unfix 569202603907013




variable E equal 0
variable Ex atom (0.003*(319.039+-320779.0*(x-0)+163840000.0*(x-0)^2+3188.37*(y-0)+-158115000.0*(y-0)^2+-0.483258*(z-0)+16206.1*(z-0)^2))*cos((2*3.141592653589793)*0.009000000000000001*step)
variable B equal 0
variable Ey atom (0.003*(-3.62944+3527.19*(x-0)+660075.0*(x-0)^2+320888.0*(y-0)+-1252000.0*(y-0)^2+1.91814*(z-0)+13573.5*(z-0)^2))*cos((2*3.141592653589793)*0.009000000000000001*step)
variable C equal 0
variable Ez atom (0.003*(0.00111849+-0.582074*(x-0)+-789.5*(x-0)^2+2.08274*(y-0)+1408.33*(y-0)^2+-57.5482*(z-0)+153.512*(z-0)^2))*cos((2*3.141592653589793)*0.009000000000000001*step)
fix 469202603907018 all efield v_Ex v_Ey v_Ez



timestep 1e-08


# Run simulation

run 1000
Generated 0 of 1 mixed pair_coeff terms from geometric mixing rule
WARNING: Proc sub-domain size < neighbor skin, could lead to lost atoms (src/domain.cpp:970)
Per MPI rank memory allocation (min/avg/max) = 5.282 | 5.282 | 5.282 Mbytes
   Step          CPU      
     64000   0            
     65000   0.13337066   
Loop time of 0.133405 on 1 procs for 1000 steps with 30 atoms

96.7% CPU use with 1 MPI tasks x no OpenMP threads

MPI task timing breakdown:
Section |  min time  |  avg time  |  max time  |%varavg| %total
---------------------------------------------------------------
Pair    | 0.0051597  | 0.0051597  | 0.0051597  |   0.0 |  3.87
Neigh   | 0          | 0          | 0          |   0.0 |  0.00
Comm    | 0.00019731 | 0.00019731 | 0.00019731 |   0.0 |  0.15
Output  | 0.0071755  | 0.0071755  | 0.0071755  |   0.0 |  5.38
Modify  | 0.12054    | 0.12054    | 0.12054    |   0.0 | 90.36
Other   |            | 0.0003312  |            |       |  0.25

Nlocal:             30 ave          30 max          30 min
Histogram: 1 0 0 0 0 0 0 0 0 0
Nghost:              0 ave           0 max           0 min
Histogram: 1 0 0 0 0 0 0 0 0 0
Neighs:            435 ave         435 max         435 min
Histogram: 1 0 0 0 0 0 0 0 0 0

Total # of neighbors = 435
Ave neighs/atom = 14.5
Neighbor list builds = 0
Dangerous builds = 0




timestep 1e-09


# Run simulation

run 1000
Generated 0 of 1 mixed pair_coeff terms from geometric mixing rule
WARNING: Proc sub-domain size < neighbor skin, could lead to lost atoms (src/domain.cpp:970)
Per MPI rank memory allocation (min/avg/max) = 5.282 | 5.282 | 5.282 Mbytes
   Step          CPU      
     65000   0            
     66000   0.13273939   
Loop time of 0.132775 on 1 procs for 1000 steps with 30 atoms

96.9% CPU use with 1 MPI tasks x no OpenMP threads

MPI task timing breakdown:
Section |  min time  |  avg time  |  max time  |%varavg| %total
---------------------------------------------------------------
Pair    | 0.0051183  | 0.0051183  | 0.0051183  |   0.0 |  3.85
Neigh   | 0          | 0          | 0          |   0.0 |  0.00
Comm    | 0.00016667 | 0.00016667 | 0.00016667 |   0.0 |  0.13
Output  | 0.0073205  | 0.0073205  | 0.0073205  |   0.0 |  5.51
Modify  | 0.11984    | 0.11984    | 0.11984    |   0.0 | 90.26
Other   |            | 0.0003299  |            |       |  0.25

Nlocal:             30 ave          30 max          30 min
Histogram: 1 0 0 0 0 0 0 0 0 0
Nghost:              0 ave           0 max           0 min
Histogram: 1 0 0 0 0 0 0 0 0 0
Neighs:            435 ave         435 max         435 min
Histogram: 1 0 0 0 0 0 0 0 0 0

Total # of neighbors = 435
Ave neighs/atom = 14.5
Neighbor list builds = 0
Dangerous builds = 0




variable coolx atom (9.269386030594033e-20+(2.703426035144626e-21*vx))*-0.5000000000000001
variable cooly atom (9.269386030594033e-20+2.703426035144626e-21*vy)*-0.5000000000000001
variable coolz atom (9.269386030594033e-20+2.703426035144626e-21*vz)*-0.7071067811865476
fix 569202603907014 1 addforce v_coolx v_cooly v_coolz



timestep 1e-08


# Run simulation

run 2000
Generated 0 of 1 mixed pair_coeff terms from geometric mixing rule
WARNING: Proc sub-domain size < neighbor skin, could lead to lost atoms (src/domain.cpp:970)
Per MPI rank memory allocation (min/avg/max) = 5.782 | 5.782 | 5.782 Mbytes
   Step          CPU      
     66000   0            
     68000   0.29766223   
Loop time of 0.297681 on 1 procs for 2000 steps with 30 atoms

96.9% CPU use with 1 MPI tasks x no OpenMP threads

MPI task timing breakdown:
Section |  min time  |  avg time  |  max time  |%varavg| %total
---------------------------------------------------------------
Pair    | 0.010199   | 0.010199   | 0.010199   |   0.0 |  3.43
Neigh   | 0          | 0          | 0          |   0.0 |  0.00
Comm    | 0.00033916 | 0.00033916 | 0.00033916 |   0.0 |  0.11
Output  | 0.014948   | 0.014948   | 0.014948   |   0.0 |  5.02
Modify  | 0.27147    | 0.27147    | 0.27147    |   0.0 | 91.20
Other   |            | 0.0007208  |            |       |  0.24

Nlocal:             30 ave          30 max          30 min
Histogram: 1 0 0 0 0 0 0 0 0 0
Nghost:              0 ave           0 max           0 min
Histogram: 1 0 0 0 0 0 0 0 0 0
Neighs:            435 ave         435 max         435 min
Histogram: 1 0 0 0 0 0 0 0 0 0

Total # of neighbors = 435
Ave neighs/atom = 14.5
Neighbor list builds = 0
Dangerous builds = 0





# Deleting a fix by uid

unfix 469202603907018





# Deleting a fix by uid

unfix 569202603907014


Total wall time: 0:00:07
