LAMMPS (23 Jun 2022)
##################################################################
# LAMMPS input file generated using pylion 0.5.3
# simulation name: test
#
# pylion is written and maintained by Dimitris Trypogeorgos
# and Elliot Bentine. Download it from
# https://bitbucket.org/dtrypogeorgos/pylion
#
# If you find it useful please cite <paper>.
##################################################################



units si
atom_style charge

# Creating simulation box...
boundary m m m
region simulationDomain block -0.001  0.001 -0.001 0.001 -0.001 0.001 units box
create_box 1 simulationDomain
Created orthogonal box = (-0.001 -0.001 -0.001) to (0.001 0.001 0.001)
  1 by 1 by 1 MPI processor grid

# Configure neighbour list...
neighbor 1 nsq
neigh_modify once yes

# Configure pairwise interactions for long range Coulombics only...
pair_style coul/cut 10
pair_coeff * *

# Placing individual ions...


create_atoms 1 single -0.00013822643877382695 0.0004940678010393396 -0.00024065475758637054 units box
Created 1 atoms
  using box units in orthogonal box = (-0.001 -0.001 -0.001) to (0.001 0.001 0.001)
  create_atoms CPU = 0.000 seconds

create_atoms 1 single -7.426443939614922e-05 0.00026435787954460246 -0.0002266264913411739 units box
Created 1 atoms
  using box units in orthogonal box = (-0.001 -0.001 -0.001) to (0.001 0.001 0.001)
  create_atoms CPU = 0.000 seconds

create_atoms 1 single 0.0009191242718912233 0.0002515063633538803 -0.00012521790058527847 units box
Created 1 atoms
  using box units in orthogonal box = (-0.001 -0.001 -0.001) to (0.001 0.001 0.001)
  create_atoms CPU = 0.000 seconds

create_atoms 1 single 0.0001644214663566379 -0.000554307396709809 7.127262302707182e-05 units box
Created 1 atoms
  using box units in orthogonal box = (-0.001 -0.001 -0.001) to (0.001 0.001 0.001)
  create_atoms CPU = 0.000 seconds

create_atoms 1 single -0.0002445150992377152 0.00023906921342802258 0.00043937244142243517 units box
Created 1 atoms
  using box units in orthogonal box = (-0.001 -0.001 -0.001) to (0.001 0.001 0.001)
  create_atoms CPU = 0.000 seconds

create_atoms 1 single -1.0767779779914334e-05 -2.3337382407512184e-05 0.00037258709430582787 units box
Created 1 atoms
  using box units in orthogonal box = (-0.001 -0.001 -0.001) to (0.001 0.001 0.001)
  create_atoms CPU = 0.000 seconds

create_atoms 1 single -0.0004183750427701899 -5.066275311927045e-05 0.0004317395546876315 units box
Created 1 atoms
  using box units in orthogonal box = (-0.001 -0.001 -0.001) to (0.001 0.001 0.001)
  create_atoms CPU = 0.000 seconds

create_atoms 1 single -0.0007878020105693666 -0.00038800703364713814 0.00014299440877435496 units box
Created 1 atoms
  using box units in orthogonal box = (-0.001 -0.001 -0.001) to (0.001 0.001 0.001)
  create_atoms CPU = 0.000 seconds

create_atoms 1 single -0.00015405154274896474 -0.0001422165759153952 -0.0002866629083756373 units box
Created 1 atoms
  using box units in orthogonal box = (-0.001 -0.001 -0.001) to (0.001 0.001 0.001)
  create_atoms CPU = 0.000 seconds

create_atoms 1 single 6.136014725438312e-05 -0.0003438740007095725 -0.0004460108675625346 units box
Created 1 atoms
  using box units in orthogonal box = (-0.001 -0.001 -0.001) to (0.001 0.001 0.001)
  create_atoms CPU = 0.000 seconds

create_atoms 1 single -0.00017831755279278393 -0.00027745715478071006 0.0006019562167343776 units box
Created 1 atoms
  using box units in orthogonal box = (-0.001 -0.001 -0.001) to (0.001 0.001 0.001)
  create_atoms CPU = 0.000 seconds

create_atoms 1 single 0.000156318006341908 0.00013703545352532123 0.0003364408944478982 units box
Created 1 atoms
  using box units in orthogonal box = (-0.001 -0.001 -0.001) to (0.001 0.001 0.001)
  create_atoms CPU = 0.000 seconds

create_atoms 1 single 0.00016617246135446897 0.0006407600491828724 -0.0003465167972744871 units box
Created 1 atoms
  using box units in orthogonal box = (-0.001 -0.001 -0.001) to (0.001 0.001 0.001)
  create_atoms CPU = 0.000 seconds

create_atoms 1 single 3.3512550712740215e-05 -0.00021342287416274656 0.00025360353044351656 units box
Created 1 atoms
  using box units in orthogonal box = (-0.001 -0.001 -0.001) to (0.001 0.001 0.001)
  create_atoms CPU = 0.000 seconds

create_atoms 1 single 5.955862188058378e-06 3.659342431553169e-05 -0.00023540927398941973 units box
Created 1 atoms
  using box units in orthogonal box = (-0.001 -0.001 -0.001) to (0.001 0.001 0.001)
  create_atoms CPU = 0.000 seconds

create_atoms 1 single -0.0001816408353547622 0.00036171352277692277 -6.477220706894422e-05 units box
Created 1 atoms
  using box units in orthogonal box = (-0.001 -0.001 -0.001) to (0.001 0.001 0.001)
  create_atoms CPU = 0.000 seconds

create_atoms 1 single 6.515252605003944e-05 -0.00011782724566002174 -0.000199790034835897 units box
Created 1 atoms
  using box units in orthogonal box = (-0.001 -0.001 -0.001) to (0.001 0.001 0.001)
  create_atoms CPU = 0.000 seconds

create_atoms 1 single -0.00018095718943170007 4.715315611739797e-05 -0.0004103844928563221 units box
Created 1 atoms
  using box units in orthogonal box = (-0.001 -0.001 -0.001) to (0.001 0.001 0.001)
  create_atoms CPU = 0.000 seconds

create_atoms 1 single -3.98281678334306e-05 8.516947187239967e-05 0.0002919121836328912 units box
Created 1 atoms
  using box units in orthogonal box = (-0.001 -0.001 -0.001) to (0.001 0.001 0.001)
  create_atoms CPU = 0.000 seconds

create_atoms 1 single 2.097802519052725e-05 -0.00016852140712623725 -0.00037834541164659364 units box
Created 1 atoms
  using box units in orthogonal box = (-0.001 -0.001 -0.001) to (0.001 0.001 0.001)
  create_atoms CPU = 0.000 seconds

create_atoms 1 single 0.000271465072964244 0.0001236698777018549 5.058981933339973e-06 units box
Created 1 atoms
  using box units in orthogonal box = (-0.001 -0.001 -0.001) to (0.001 0.001 0.001)
  create_atoms CPU = 0.000 seconds

create_atoms 1 single -2.5599096606305322e-05 -0.00021021503244224505 -0.0006247866684182848 units box
Created 1 atoms
  using box units in orthogonal box = (-0.001 -0.001 -0.001) to (0.001 0.001 0.001)
  create_atoms CPU = 0.000 seconds

create_atoms 1 single 6.264059647120546e-08 4.034759976719142e-06 -0.0004477006258953542 units box
Created 1 atoms
  using box units in orthogonal box = (-0.001 -0.001 -0.001) to (0.001 0.001 0.001)
  create_atoms CPU = 0.000 seconds

create_atoms 1 single 0.0002944792793426053 -0.00014706199388416928 -0.0002117789217000536 units box
Created 1 atoms
  using box units in orthogonal box = (-0.001 -0.001 -0.001) to (0.001 0.001 0.001)
  create_atoms CPU = 0.000 seconds

create_atoms 1 single -0.00041630613348425834 -0.0007711784036857121 0.00013246657575300653 units box
Created 1 atoms
  using box units in orthogonal box = (-0.001 -0.001 -0.001) to (0.001 0.001 0.001)
  create_atoms CPU = 0.000 seconds

create_atoms 1 single 6.428991994448669e-06 -0.00011347631752792828 -0.00033683190555453273 units box
Created 1 atoms
  using box units in orthogonal box = (-0.001 -0.001 -0.001) to (0.001 0.001 0.001)
  create_atoms CPU = 0.000 seconds

create_atoms 1 single 0.0001918351763820069 0.00021908484121915952 3.7138392853773896e-06 units box
Created 1 atoms
  using box units in orthogonal box = (-0.001 -0.001 -0.001) to (0.001 0.001 0.001)
  create_atoms CPU = 0.000 seconds

create_atoms 1 single 8.77994349594252e-06 -0.00025910203310001664 -0.0007090606986919447 units box
Created 1 atoms
  using box units in orthogonal box = (-0.001 -0.001 -0.001) to (0.001 0.001 0.001)
  create_atoms CPU = 0.000 seconds

create_atoms 1 single -0.0003825831495037453 -0.00040186698466314607 -0.0008140272262547961 units box
Created 1 atoms
  using box units in orthogonal box = (-0.001 -0.001 -0.001) to (0.001 0.001 0.001)
  create_atoms CPU = 0.000 seconds

create_atoms 1 single -0.0004949723859987099 0.00033797518852984057 -0.00043165264255055127 units box
Created 1 atoms
  using box units in orthogonal box = (-0.001 -0.001 -0.001) to (0.001 0.001 0.001)
  create_atoms CPU = 0.000 seconds

create_atoms 1 single 9.315123793630075e-05 2.7885128484535324e-06 -0.000326933798230538 units box
Created 1 atoms
  using box units in orthogonal box = (-0.001 -0.001 -0.001) to (0.001 0.001 0.001)
  create_atoms CPU = 0.000 seconds

create_atoms 1 single 0.00023572013608407814 -0.0002354517925247289 -0.0001765678232772426 units box
Created 1 atoms
  using box units in orthogonal box = (-0.001 -0.001 -0.001) to (0.001 0.001 0.001)
  create_atoms CPU = 0.000 seconds

create_atoms 1 single 6.657130374879266e-05 -7.744210698609378e-06 0.00026947338726264654 units box
Created 1 atoms
  using box units in orthogonal box = (-0.001 -0.001 -0.001) to (0.001 0.001 0.001)
  create_atoms CPU = 0.000 seconds

create_atoms 1 single 0.00020665473445956084 -0.00027354650383685293 -0.0004849556334972907 units box
Created 1 atoms
  using box units in orthogonal box = (-0.001 -0.001 -0.001) to (0.001 0.001 0.001)
  create_atoms CPU = 0.000 seconds

create_atoms 1 single 0.00036131314943428373 -0.0003455251398673406 2.7492399754875534e-05 units box
Created 1 atoms
  using box units in orthogonal box = (-0.001 -0.001 -0.001) to (0.001 0.001 0.001)
  create_atoms CPU = 0.000 seconds

create_atoms 1 single 2.4232821990992715e-06 -3.2159087831042462e-06 4.9355393998962075e-05 units box
Created 1 atoms
  using box units in orthogonal box = (-0.001 -0.001 -0.001) to (0.001 0.001 0.001)
  create_atoms CPU = 0.000 seconds

create_atoms 1 single 2.398492728785906e-05 0.0002963737240467994 -0.00043049300758071405 units box
Created 1 atoms
  using box units in orthogonal box = (-0.001 -0.001 -0.001) to (0.001 0.001 0.001)
  create_atoms CPU = 0.000 seconds

create_atoms 1 single 1.2609240359117545e-05 0.000435815823646315 -0.0008262323410771372 units box
Created 1 atoms
  using box units in orthogonal box = (-0.001 -0.001 -0.001) to (0.001 0.001 0.001)
  create_atoms CPU = 0.000 seconds

create_atoms 1 single -0.00022049447860267494 -0.0003917869411782201 -0.0008677544025481968 units box
Created 1 atoms
  using box units in orthogonal box = (-0.001 -0.001 -0.001) to (0.001 0.001 0.001)
  create_atoms CPU = 0.000 seconds

create_atoms 1 single 3.0005959136737886e-08 6.268420777094219e-06 0.0004614202958915964 units box
Created 1 atoms
  using box units in orthogonal box = (-0.001 -0.001 -0.001) to (0.001 0.001 0.001)
  create_atoms CPU = 0.000 seconds

create_atoms 1 single -0.0008238857816991122 0.00019919547522773785 -0.00044842544041553907 units box
Created 1 atoms
  using box units in orthogonal box = (-0.001 -0.001 -0.001) to (0.001 0.001 0.001)
  create_atoms CPU = 0.000 seconds

create_atoms 1 single 0.0001434345938756476 7.053134905489633e-05 -0.00020570421303814016 units box
Created 1 atoms
  using box units in orthogonal box = (-0.001 -0.001 -0.001) to (0.001 0.001 0.001)
  create_atoms CPU = 0.000 seconds

create_atoms 1 single -0.00037836085442125353 0.00040673594709930076 -0.0006911173941306809 units box
Created 1 atoms
  using box units in orthogonal box = (-0.001 -0.001 -0.001) to (0.001 0.001 0.001)
  create_atoms CPU = 0.000 seconds

create_atoms 1 single -0.00014004494561279857 -8.688659615815616e-05 -0.0008815281932633773 units box
Created 1 atoms
  using box units in orthogonal box = (-0.001 -0.001 -0.001) to (0.001 0.001 0.001)
  create_atoms CPU = 0.000 seconds

create_atoms 1 single 0.0005952194049102747 0.00022507424094908205 -0.00040005919542874174 units box
Created 1 atoms
  using box units in orthogonal box = (-0.001 -0.001 -0.001) to (0.001 0.001 0.001)
  create_atoms CPU = 0.000 seconds

create_atoms 1 single -3.2094300550990475e-05 -7.71276632692653e-05 0.00022540956544474586 units box
Created 1 atoms
  using box units in orthogonal box = (-0.001 -0.001 -0.001) to (0.001 0.001 0.001)
  create_atoms CPU = 0.000 seconds

create_atoms 1 single -0.0008154834627203041 -2.428613276531385e-05 -0.00025376607522058513 units box
Created 1 atoms
  using box units in orthogonal box = (-0.001 -0.001 -0.001) to (0.001 0.001 0.001)
  create_atoms CPU = 0.000 seconds

create_atoms 1 single 0.000725840088264247 -0.0004423862792388604 -0.0004268696901380466 units box
Created 1 atoms
  using box units in orthogonal box = (-0.001 -0.001 -0.001) to (0.001 0.001 0.001)
  create_atoms CPU = 0.000 seconds

create_atoms 1 single -1.4646774245419915e-05 2.451646130111824e-06 0.00012182821275609 units box
Created 1 atoms
  using box units in orthogonal box = (-0.001 -0.001 -0.001) to (0.001 0.001 0.001)
  create_atoms CPU = 0.000 seconds

create_atoms 1 single 0.00047619488085346893 0.0004074458179006543 0.00040739380574508196 units box
Created 1 atoms
  using box units in orthogonal box = (-0.001 -0.001 -0.001) to (0.001 0.001 0.001)
  create_atoms CPU = 0.000 seconds


# Species...
mass 1 1.4944851e-26
set type 1 charge 1.6021764599999998e-19
Setting atom values ...
  50 settings made for charge
group 1 type 1
50 atoms in group 1


timestep 1e-06

# Configuring additional output to flush buffer during simulation...
thermo 10000
thermo_style custom step cpu
thermo_modify flush yes

# Time integration...

group nonRigidBody union all
50 atoms in group nonRigidBody

fix timeIntegrator nonRigidBody nve



dump 8977608856 all custom 10 /Users/michaelmitchell/qlicS/data/2024-06-28_16-07-09/positions.txt id x y z vx vy vz





# Pseudopotential approximation for Linear Paul trap... (fixID=8985555776)


# SHO

variable k_x8985555776		equal 1.773509e-12

variable k_y8985555776		equal 1.773509e-12

variable k_z8985555776		equal 1.548694e-13

variable fX8985555776 atom "-v_k_x8985555776 * x"

variable fY8985555776 atom "-v_k_y8985555776 * y"

variable fZ8985555776 atom "-v_k_z8985555776 * z"

variable E8985555776 atom "v_k_x8985555776 * x * x /         2 + v_k_y8985555776 * y * y / 2 + v_k_z8985555776 * z * z / 2"

fix 8985555776 all addforce         v_fX8985555776 v_fY8985555776 v_fZ8985555776 energy v_E8985555776




variable coolx atom (9.269386030594033e-20+(-2.703426035144626e-21*vx))*-0.5000000000000001
variable cooly atom (9.269386030594033e-20+-2.703426035144626e-21*vy)*-0.5000000000000001
variable coolz atom (9.269386030594033e-20+-2.703426035144626e-21*vz)*-0.7071067811865476
fix 569202603907002 1 addforce v_coolx v_cooly v_coolz



timestep 1e-08


# Run simulation

run 10000
Generated 0 of 0 mixed pair_coeff terms from geometric mixing rule
Neighbor list info ...
  update every 1 steps, delay 10 steps, check yes
  max neighbors/atom: 2000, page size: 100000
  master list distance cutoff = 11
  ghost atom cutoff = 11
  1 neighbor lists, perpetual/occasional/extra = 1 0 0
  (1) pair coul/cut, perpetual
      attributes: half, newton on
      pair build: half/nsq/newton
      stencil: none
      bin: none
WARNING: Proc sub-domain size < neighbor skin, could lead to lost atoms (src/domain.cpp:970)
Per MPI rank memory allocation (min/avg/max) = 5.283 | 5.283 | 5.283 Mbytes
   Step          CPU      
         0   0            
     10000   0.70119253   
Loop time of 0.701211 on 1 procs for 10000 steps with 50 atoms

96.6% CPU use with 1 MPI tasks x no OpenMP threads

MPI task timing breakdown:
Section |  min time  |  avg time  |  max time  |%varavg| %total
---------------------------------------------------------------
Pair    | 0.13404    | 0.13404    | 0.13404    |   0.0 | 19.11
Neigh   | 0          | 0          | 0          |   0.0 |  0.00
Comm    | 0.0015332  | 0.0015332  | 0.0015332  |   0.0 |  0.22
Output  | 0.10648    | 0.10648    | 0.10648    |   0.0 | 15.18
Modify  | 0.4559     | 0.4559     | 0.4559     |   0.0 | 65.02
Other   |            | 0.003264   |            |       |  0.47

Nlocal:             50 ave          50 max          50 min
Histogram: 1 0 0 0 0 0 0 0 0 0
Nghost:              0 ave           0 max           0 min
Histogram: 1 0 0 0 0 0 0 0 0 0
Neighs:           1225 ave        1225 max        1225 min
Histogram: 1 0 0 0 0 0 0 0 0 0

Total # of neighbors = 1225
Ave neighs/atom = 24.5
Neighbor list builds = 0
Dangerous builds = 0




variable E equal 0
variable Ex atom (0.003*(319.039+-320779.0*(x-0)+163840000.0*(x-0)^2+3188.37*(y-0)+-158115000.0*(y-0)^2+-0.483258*(z-0)+16206.1*(z-0)^2))*cos((2*3.141592653589793)*0.0007170000000000001*step)
variable B equal 0
variable Ey atom (0.003*(-3.62944+3527.19*(x-0)+660075.0*(x-0)^2+320888.0*(y-0)+-1252000.0*(y-0)^2+1.91814*(z-0)+13573.5*(z-0)^2))*cos((2*3.141592653589793)*0.0007170000000000001*step)
variable C equal 0
variable Ez atom (0.003*(0.00111849+-0.582074*(x-0)+-789.5*(x-0)^2+2.08274*(y-0)+1408.33*(y-0)^2+-57.5482*(z-0)+153.512*(z-0)^2))*cos((2*3.141592653589793)*0.0007170000000000001*step)
fix 569202603907006 all efield v_Ex v_Ey v_Ez



timestep 1e-09


# Run simulation

run 10000
Generated 0 of 0 mixed pair_coeff terms from geometric mixing rule
WARNING: Proc sub-domain size < neighbor skin, could lead to lost atoms (src/domain.cpp:970)
Per MPI rank memory allocation (min/avg/max) = 5.783 | 5.783 | 5.783 Mbytes
   Step          CPU      
     10000   0            
     20000   1.8508066    
Loop time of 1.85083 on 1 procs for 10000 steps with 50 atoms

98.2% CPU use with 1 MPI tasks x no OpenMP threads

MPI task timing breakdown:
Section |  min time  |  avg time  |  max time  |%varavg| %total
---------------------------------------------------------------
Pair    | 0.13566    | 0.13566    | 0.13566    |   0.0 |  7.33
Neigh   | 0          | 0          | 0          |   0.0 |  0.00
Comm    | 0.0017015  | 0.0017015  | 0.0017015  |   0.0 |  0.09
Output  | 0.10714    | 0.10714    | 0.10714    |   0.0 |  5.79
Modify  | 1.6031     | 1.6031     | 1.6031     |   0.0 | 86.61
Other   |            | 0.003261   |            |       |  0.18

Nlocal:             50 ave          50 max          50 min
Histogram: 1 0 0 0 0 0 0 0 0 0
Nghost:              0 ave           0 max           0 min
Histogram: 1 0 0 0 0 0 0 0 0 0
Neighs:           1225 ave        1225 max        1225 min
Histogram: 1 0 0 0 0 0 0 0 0 0

Total # of neighbors = 1225
Ave neighs/atom = 24.5
Neighbor list builds = 0
Dangerous builds = 0


Total wall time: 0:00:02
