LAMMPS (23 Jun 2022)
##################################################################
# LAMMPS input file generated using pylion 0.5.3
# simulation name: test
#
# pylion is written and maintained by Dimitris Trypogeorgos
# and Elliot Bentine. Download it from
# https://bitbucket.org/dtrypogeorgos/pylion
#
# If you find it useful please cite <paper>.
##################################################################



units si
atom_style charge

# Creating simulation box...
boundary m m m
region simulationDomain block -0.001  0.001 -0.001 0.001 -0.001 0.001 units box
create_box 1 simulationDomain
Created orthogonal box = (-0.001 -0.001 -0.001) to (0.001 0.001 0.001)
  1 by 1 by 1 MPI processor grid

# Configure neighbour list...
neighbor 1 nsq
neigh_modify once yes

# Configure pairwise interactions for long range Coulombics only...
pair_style coul/cut 10
pair_coeff * *

# Placing individual ions...


create_atoms 1 single -0.0002449765996886777 0.00021607607780178782 0.0006454753187984936 units box
Created 1 atoms
  using box units in orthogonal box = (-0.001 -0.001 -0.001) to (0.001 0.001 0.001)
  create_atoms CPU = 0.000 seconds

create_atoms 1 single 0.00015924841455057547 0.0007811582107024098 0.0005096784607620793 units box
Created 1 atoms
  using box units in orthogonal box = (-0.001 -0.001 -0.001) to (0.001 0.001 0.001)
  create_atoms CPU = 0.000 seconds

create_atoms 1 single -8.671370183230051e-05 4.365828179491396e-05 -1.622222381461135e-05 units box
Created 1 atoms
  using box units in orthogonal box = (-0.001 -0.001 -0.001) to (0.001 0.001 0.001)
  create_atoms CPU = 0.000 seconds

create_atoms 1 single 0.00012856083961760526 -0.0003373506761679377 -5.0030017876155736e-05 units box
Created 1 atoms
  using box units in orthogonal box = (-0.001 -0.001 -0.001) to (0.001 0.001 0.001)
  create_atoms CPU = 0.000 seconds

create_atoms 1 single 0.0001857805364448913 8.702443799613446e-05 0.0009603336236946734 units box
Created 1 atoms
  using box units in orthogonal box = (-0.001 -0.001 -0.001) to (0.001 0.001 0.001)
  create_atoms CPU = 0.000 seconds

create_atoms 1 single -0.0003381667135687886 0.0007771155393509283 -0.0002056284268961776 units box
Created 1 atoms
  using box units in orthogonal box = (-0.001 -0.001 -0.001) to (0.001 0.001 0.001)
  create_atoms CPU = 0.000 seconds

create_atoms 1 single 0.00046193533040902427 -9.402177943665068e-05 -0.0005671199407072036 units box
Created 1 atoms
  using box units in orthogonal box = (-0.001 -0.001 -0.001) to (0.001 0.001 0.001)
  create_atoms CPU = 0.000 seconds

create_atoms 1 single -1.2373985958672226e-05 0.0002367346517540531 0.00048629458352742225 units box
Created 1 atoms
  using box units in orthogonal box = (-0.001 -0.001 -0.001) to (0.001 0.001 0.001)
  create_atoms CPU = 0.000 seconds

create_atoms 1 single -0.00018817264748068982 3.098605130235692e-05 -0.00012290150795368066 units box
Created 1 atoms
  using box units in orthogonal box = (-0.001 -0.001 -0.001) to (0.001 0.001 0.001)
  create_atoms CPU = 0.000 seconds

create_atoms 1 single 9.03695794007737e-06 2.008711413041934e-05 6.96776617971081e-05 units box
Created 1 atoms
  using box units in orthogonal box = (-0.001 -0.001 -0.001) to (0.001 0.001 0.001)
  create_atoms CPU = 0.000 seconds

create_atoms 1 single 4.692707175482873e-05 4.908674381319337e-05 0.000627371487854534 units box
Created 1 atoms
  using box units in orthogonal box = (-0.001 -0.001 -0.001) to (0.001 0.001 0.001)
  create_atoms CPU = 0.000 seconds

create_atoms 1 single 0.00046066594572412387 -0.0002620626363958009 0.0005836739632992041 units box
Created 1 atoms
  using box units in orthogonal box = (-0.001 -0.001 -0.001) to (0.001 0.001 0.001)
  create_atoms CPU = 0.000 seconds

create_atoms 1 single -6.999427402806821e-06 1.123906140760043e-05 -1.106948931905539e-05 units box
Created 1 atoms
  using box units in orthogonal box = (-0.001 -0.001 -0.001) to (0.001 0.001 0.001)
  create_atoms CPU = 0.000 seconds

create_atoms 1 single -3.900122340348988e-05 6.351007617637062e-06 0.0005205181551884527 units box
Created 1 atoms
  using box units in orthogonal box = (-0.001 -0.001 -0.001) to (0.001 0.001 0.001)
  create_atoms CPU = 0.000 seconds

create_atoms 1 single -0.00020004325827500052 -0.0003869170940774578 0.00043909132225477225 units box
Created 1 atoms
  using box units in orthogonal box = (-0.001 -0.001 -0.001) to (0.001 0.001 0.001)
  create_atoms CPU = 0.000 seconds

create_atoms 1 single 0.0007490320229877559 0.0004726900095716524 0.0003610827338175841 units box
Created 1 atoms
  using box units in orthogonal box = (-0.001 -0.001 -0.001) to (0.001 0.001 0.001)
  create_atoms CPU = 0.000 seconds

create_atoms 1 single -7.00789971127168e-06 1.2467496973887378e-05 0.0004924158534036228 units box
Created 1 atoms
  using box units in orthogonal box = (-0.001 -0.001 -0.001) to (0.001 0.001 0.001)
  create_atoms CPU = 0.000 seconds

create_atoms 1 single 2.7345173089491897e-05 2.3997563521396034e-05 2.36986806299674e-05 units box
Created 1 atoms
  using box units in orthogonal box = (-0.001 -0.001 -0.001) to (0.001 0.001 0.001)
  create_atoms CPU = 0.000 seconds

create_atoms 1 single 0.0001424869683423224 0.00044393489761976275 0.00016309789235761563 units box
Created 1 atoms
  using box units in orthogonal box = (-0.001 -0.001 -0.001) to (0.001 0.001 0.001)
  create_atoms CPU = 0.000 seconds

create_atoms 1 single -0.0002477477792770261 0.00012231562033310935 0.00036924339542665117 units box
Created 1 atoms
  using box units in orthogonal box = (-0.001 -0.001 -0.001) to (0.001 0.001 0.001)
  create_atoms CPU = 0.000 seconds

create_atoms 1 single 3.583260209978109e-05 -2.816533269656753e-05 -8.370860143770376e-05 units box
Created 1 atoms
  using box units in orthogonal box = (-0.001 -0.001 -0.001) to (0.001 0.001 0.001)
  create_atoms CPU = 0.000 seconds

create_atoms 1 single 7.566223160727314e-05 0.00017164788286785855 0.0005995981503820595 units box
Created 1 atoms
  using box units in orthogonal box = (-0.001 -0.001 -0.001) to (0.001 0.001 0.001)
  create_atoms CPU = 0.000 seconds

create_atoms 1 single -0.0003929713872281782 -0.0003831534350029394 -0.00015566759158659673 units box
Created 1 atoms
  using box units in orthogonal box = (-0.001 -0.001 -0.001) to (0.001 0.001 0.001)
  create_atoms CPU = 0.000 seconds

create_atoms 1 single 7.169427454689811e-05 4.4803454173175317e-05 -8.01421167433988e-05 units box
Created 1 atoms
  using box units in orthogonal box = (-0.001 -0.001 -0.001) to (0.001 0.001 0.001)
  create_atoms CPU = 0.000 seconds

create_atoms 1 single 5.780432282904472e-06 -1.3276701387602736e-05 -0.00032249076161763705 units box
Created 1 atoms
  using box units in orthogonal box = (-0.001 -0.001 -0.001) to (0.001 0.001 0.001)
  create_atoms CPU = 0.000 seconds

create_atoms 1 single 0.00033828426147116194 -4.7816953033975675e-05 0.00013131143349325966 units box
Created 1 atoms
  using box units in orthogonal box = (-0.001 -0.001 -0.001) to (0.001 0.001 0.001)
  create_atoms CPU = 0.000 seconds

create_atoms 1 single -0.0004551358335428722 -0.000552768918986595 -9.167295270675845e-05 units box
Created 1 atoms
  using box units in orthogonal box = (-0.001 -0.001 -0.001) to (0.001 0.001 0.001)
  create_atoms CPU = 0.000 seconds

create_atoms 1 single 0.00042829087606888693 0.00011777358822188429 0.000651737395913251 units box
Created 1 atoms
  using box units in orthogonal box = (-0.001 -0.001 -0.001) to (0.001 0.001 0.001)
  create_atoms CPU = 0.000 seconds

create_atoms 1 single -0.0002681356530551257 -0.000263612192652808 -0.00021347040285075265 units box
Created 1 atoms
  using box units in orthogonal box = (-0.001 -0.001 -0.001) to (0.001 0.001 0.001)
  create_atoms CPU = 0.000 seconds

create_atoms 1 single -5.193069359150727e-05 0.00010417669774229488 0.0007771173594780236 units box
Created 1 atoms
  using box units in orthogonal box = (-0.001 -0.001 -0.001) to (0.001 0.001 0.001)
  create_atoms CPU = 0.000 seconds

create_atoms 1 single -0.00019080186573037483 -1.1796137532699466e-05 -0.000316402049510494 units box
Created 1 atoms
  using box units in orthogonal box = (-0.001 -0.001 -0.001) to (0.001 0.001 0.001)
  create_atoms CPU = 0.000 seconds

create_atoms 1 single -0.0007788745177954555 0.00018937426441736668 0.00037962209290823756 units box
Created 1 atoms
  using box units in orthogonal box = (-0.001 -0.001 -0.001) to (0.001 0.001 0.001)
  create_atoms CPU = 0.000 seconds

create_atoms 1 single -0.0005403917916950735 -3.0973971951134136e-05 -0.0001620000907756259 units box
Created 1 atoms
  using box units in orthogonal box = (-0.001 -0.001 -0.001) to (0.001 0.001 0.001)
  create_atoms CPU = 0.000 seconds

create_atoms 1 single 0.0002085442484188924 -0.00020122089953648526 0.00010424897149238603 units box
Created 1 atoms
  using box units in orthogonal box = (-0.001 -0.001 -0.001) to (0.001 0.001 0.001)
  create_atoms CPU = 0.000 seconds

create_atoms 1 single 0.00023973429551555814 0.0001921350041071048 -0.0005604711130197421 units box
Created 1 atoms
  using box units in orthogonal box = (-0.001 -0.001 -0.001) to (0.001 0.001 0.001)
  create_atoms CPU = 0.000 seconds

create_atoms 1 single 1.7360575642710568e-05 -0.0005946828898943517 -0.000597212808497631 units box
Created 1 atoms
  using box units in orthogonal box = (-0.001 -0.001 -0.001) to (0.001 0.001 0.001)
  create_atoms CPU = 0.000 seconds

create_atoms 1 single -0.0003087026461962678 0.0004172497665083273 -0.00030148762765808254 units box
Created 1 atoms
  using box units in orthogonal box = (-0.001 -0.001 -0.001) to (0.001 0.001 0.001)
  create_atoms CPU = 0.000 seconds

create_atoms 1 single -0.0002966988889943105 -0.0003859051546899676 -0.0005401220975709607 units box
Created 1 atoms
  using box units in orthogonal box = (-0.001 -0.001 -0.001) to (0.001 0.001 0.001)
  create_atoms CPU = 0.000 seconds

create_atoms 1 single -2.329997587785864e-05 2.4163885073116196e-05 -8.458367683590702e-05 units box
Created 1 atoms
  using box units in orthogonal box = (-0.001 -0.001 -0.001) to (0.001 0.001 0.001)
  create_atoms CPU = 0.000 seconds

create_atoms 1 single -0.00021124385158480821 -0.00027209690301092975 -0.00034620248542210994 units box
Created 1 atoms
  using box units in orthogonal box = (-0.001 -0.001 -0.001) to (0.001 0.001 0.001)
  create_atoms CPU = 0.000 seconds

create_atoms 1 single -0.0001885677310689383 -1.0666354780528412e-05 0.00029964492894054786 units box
Created 1 atoms
  using box units in orthogonal box = (-0.001 -0.001 -0.001) to (0.001 0.001 0.001)
  create_atoms CPU = 0.000 seconds

create_atoms 1 single -0.00019189387706640648 -0.0004699915532120643 2.783869816643869e-05 units box
Created 1 atoms
  using box units in orthogonal box = (-0.001 -0.001 -0.001) to (0.001 0.001 0.001)
  create_atoms CPU = 0.000 seconds

create_atoms 1 single -0.0004845074556741901 -8.923226773305066e-05 0.00025801077523464284 units box
Created 1 atoms
  using box units in orthogonal box = (-0.001 -0.001 -0.001) to (0.001 0.001 0.001)
  create_atoms CPU = 0.000 seconds

create_atoms 1 single 0.00019058669856243383 -3.865762804453551e-05 0.00013057903374280366 units box
Created 1 atoms
  using box units in orthogonal box = (-0.001 -0.001 -0.001) to (0.001 0.001 0.001)
  create_atoms CPU = 0.000 seconds

create_atoms 1 single -1.9575306152971177e-05 0.0001548441822404375 0.000449084527981445 units box
Created 1 atoms
  using box units in orthogonal box = (-0.001 -0.001 -0.001) to (0.001 0.001 0.001)
  create_atoms CPU = 0.000 seconds

create_atoms 1 single -0.00034530050219994655 0.0003742368053656449 -0.000110074538825918 units box
Created 1 atoms
  using box units in orthogonal box = (-0.001 -0.001 -0.001) to (0.001 0.001 0.001)
  create_atoms CPU = 0.000 seconds

create_atoms 1 single 7.332936271754423e-05 -9.100626558214695e-05 0.0008181996383250612 units box
Created 1 atoms
  using box units in orthogonal box = (-0.001 -0.001 -0.001) to (0.001 0.001 0.001)
  create_atoms CPU = 0.000 seconds

create_atoms 1 single -0.00021958077117999395 -0.0006167422120268337 -0.0005695663890209778 units box
Created 1 atoms
  using box units in orthogonal box = (-0.001 -0.001 -0.001) to (0.001 0.001 0.001)
  create_atoms CPU = 0.000 seconds

create_atoms 1 single 0.00017644160179589898 2.16888414983517e-05 -0.00010034092682353779 units box
Created 1 atoms
  using box units in orthogonal box = (-0.001 -0.001 -0.001) to (0.001 0.001 0.001)
  create_atoms CPU = 0.000 seconds

create_atoms 1 single 0.00010412388909112935 -1.923263189731686e-05 -0.00015878344094568883 units box
Created 1 atoms
  using box units in orthogonal box = (-0.001 -0.001 -0.001) to (0.001 0.001 0.001)
  create_atoms CPU = 0.000 seconds


# Species...
mass 1 1.4944851e-26
set type 1 charge 1.6021764599999998e-19
Setting atom values ...
  50 settings made for charge
group 1 type 1
50 atoms in group 1


timestep 1e-06

# Configuring additional output to flush buffer during simulation...
thermo 10000
thermo_style custom step cpu
thermo_modify flush yes

# Time integration...

group nonRigidBody union all
50 atoms in group nonRigidBody

fix timeIntegrator nonRigidBody nve



dump 9058662229 all custom 10 /Users/michaelmitchell/qlicS/data/2024-07-08_09-33-07/positions.txt id x y z vx vy vz





# Pseudopotential approximation for Linear Paul trap... (fixID=9060437188)


# SHO

variable k_x9060437188		equal 1.773509e-12

variable k_y9060437188		equal 1.773509e-12

variable k_z9060437188		equal 1.548694e-13

variable fX9060437188 atom "-v_k_x9060437188 * x"

variable fY9060437188 atom "-v_k_y9060437188 * y"

variable fZ9060437188 atom "-v_k_z9060437188 * z"

variable E9060437188 atom "v_k_x9060437188 * x * x /         2 + v_k_y9060437188 * y * y / 2 + v_k_z9060437188 * z * z / 2"

fix 9060437188 all addforce         v_fX9060437188 v_fY9060437188 v_fZ9060437188 energy v_E9060437188




variable coolx atom (9.269386030594033e-20+(-2.703426035144626e-21*vx))*-0.5000000000000001
variable cooly atom (9.269386030594033e-20+-2.703426035144626e-21*vy)*-0.5000000000000001
variable coolz atom (9.269386030594033e-20+-2.703426035144626e-21*vz)*-0.7071067811865476
fix 569202603907002 1 addforce v_coolx v_cooly v_coolz



timestep 1e-08


# Run simulation

run 10000
Generated 0 of 0 mixed pair_coeff terms from geometric mixing rule
Neighbor list info ...
  update every 1 steps, delay 10 steps, check yes
  max neighbors/atom: 2000, page size: 100000
  master list distance cutoff = 11
  ghost atom cutoff = 11
  1 neighbor lists, perpetual/occasional/extra = 1 0 0
  (1) pair coul/cut, perpetual
      attributes: half, newton on
      pair build: half/nsq/newton
      stencil: none
      bin: none
WARNING: Proc sub-domain size < neighbor skin, could lead to lost atoms (src/domain.cpp:970)
Per MPI rank memory allocation (min/avg/max) = 5.283 | 5.283 | 5.283 Mbytes
   Step          CPU      
         0   0            
     10000   0.72830379   
Loop time of 0.728323 on 1 procs for 10000 steps with 50 atoms

95.6% CPU use with 1 MPI tasks x no OpenMP threads

MPI task timing breakdown:
Section |  min time  |  avg time  |  max time  |%varavg| %total
---------------------------------------------------------------
Pair    | 0.13672    | 0.13672    | 0.13672    |   0.0 | 18.77
Neigh   | 0          | 0          | 0          |   0.0 |  0.00
Comm    | 0.0018137  | 0.0018137  | 0.0018137  |   0.0 |  0.25
Output  | 0.11496    | 0.11496    | 0.11496    |   0.0 | 15.78
Modify  | 0.47168    | 0.47168    | 0.47168    |   0.0 | 64.76
Other   |            | 0.00315    |            |       |  0.43

Nlocal:             50 ave          50 max          50 min
Histogram: 1 0 0 0 0 0 0 0 0 0
Nghost:              0 ave           0 max           0 min
Histogram: 1 0 0 0 0 0 0 0 0 0
Neighs:           1225 ave        1225 max        1225 min
Histogram: 1 0 0 0 0 0 0 0 0 0

Total # of neighbors = 1225
Ave neighs/atom = 24.5
Neighbor list builds = 0
Dangerous builds = 0




variable E equal 0
variable Ex atom (0.003*(319.039+-320779.0*(x-0)+163840000.0*(x-0)^2+3188.37*(y-0)+-158115000.0*(y-0)^2+-0.483258*(z-0)+16206.1*(z-0)^2))*cos((2*3.141592653589793)*0.0007170000000000001*step)
variable B equal 0
variable Ey atom (0.003*(-3.62944+3527.19*(x-0)+660075.0*(x-0)^2+320888.0*(y-0)+-1252000.0*(y-0)^2+1.91814*(z-0)+13573.5*(z-0)^2))*cos((2*3.141592653589793)*0.0007170000000000001*step)
variable C equal 0
variable Ez atom (0.003*(0.00111849+-0.582074*(x-0)+-789.5*(x-0)^2+2.08274*(y-0)+1408.33*(y-0)^2+-57.5482*(z-0)+153.512*(z-0)^2))*cos((2*3.141592653589793)*0.0007170000000000001*step)
fix 569202603907006 all efield v_Ex v_Ey v_Ez



timestep 1e-09


# Run simulation

run 10000
Generated 0 of 0 mixed pair_coeff terms from geometric mixing rule
WARNING: Proc sub-domain size < neighbor skin, could lead to lost atoms (src/domain.cpp:970)
Per MPI rank memory allocation (min/avg/max) = 5.783 | 5.783 | 5.783 Mbytes
   Step          CPU      
     10000   0            
     20000   1.901706     
Loop time of 1.90173 on 1 procs for 10000 steps with 50 atoms

98.3% CPU use with 1 MPI tasks x no OpenMP threads

MPI task timing breakdown:
Section |  min time  |  avg time  |  max time  |%varavg| %total
---------------------------------------------------------------
Pair    | 0.14188    | 0.14188    | 0.14188    |   0.0 |  7.46
Neigh   | 0          | 0          | 0          |   0.0 |  0.00
Comm    | 0.0020104  | 0.0020104  | 0.0020104  |   0.0 |  0.11
Output  | 0.11218    | 0.11218    | 0.11218    |   0.0 |  5.90
Modify  | 1.6417     | 1.6417     | 1.6417     |   0.0 | 86.33
Other   |            | 0.003941   |            |       |  0.21

Nlocal:             50 ave          50 max          50 min
Histogram: 1 0 0 0 0 0 0 0 0 0
Nghost:              0 ave           0 max           0 min
Histogram: 1 0 0 0 0 0 0 0 0 0
Neighs:           1225 ave        1225 max        1225 min
Histogram: 1 0 0 0 0 0 0 0 0 0

Total # of neighbors = 1225
Ave neighs/atom = 24.5
Neighbor list builds = 0
Dangerous builds = 0


Total wall time: 0:00:02
