LAMMPS (23 Jun 2022)
##################################################################
# LAMMPS input file generated using pylion 0.5.3
# simulation name: test
#
# pylion is written and maintained by Dimitris Trypogeorgos
# and Elliot Bentine. Download it from
# https://bitbucket.org/dtrypogeorgos/pylion
#
# If you find it useful please cite <paper>.
##################################################################



units si
atom_style charge

# Creating simulation box...
boundary m m m
region simulationDomain block -0.001  0.001 -0.001 0.001 -0.001 0.001 units box
create_box 1 simulationDomain
Created orthogonal box = (-0.001 -0.001 -0.001) to (0.001 0.001 0.001)
  1 by 1 by 1 MPI processor grid

# Configure neighbour list...
neighbor 1 nsq
neigh_modify once yes

# Configure pairwise interactions for long range Coulombics only...
pair_style coul/cut 10
pair_coeff * *

# Placing individual ions...


create_atoms 1 single 6.877191322126298e-06 6.953716207729556e-05 -1.7175501994196368e-05 units box
Created 1 atoms
  using box units in orthogonal box = (-0.001 -0.001 -0.001) to (0.001 0.001 0.001)
  create_atoms CPU = 0.000 seconds


# Species...
mass 1 1.4944851e-26
set type 1 charge 1.6021764599999998e-19
Setting atom values ...
  1 settings made for charge
group 1 type 1
1 atoms in group 1


timestep 1e-06

# Configuring additional output to flush buffer during simulation...
thermo 10000
thermo_style custom step cpu
thermo_modify flush yes

# Time integration...

group nonRigidBody union all
1 atoms in group nonRigidBody

fix timeIntegrator nonRigidBody nve



dump 9166316857 all custom 10 /Users/michaelmitchell/qlicS/data/2024-07-11_16-59-29/positions.txt id x y z vx vy vz





# Pseudopotential approximation for Linear Paul trap... (fixID=9166611414)


# SHO

variable k_x9166611414		equal 2.973789e-13

variable k_y9166611414		equal 2.973789e-13

variable k_z9166611414		equal 4.835556e-14

variable fX9166611414 atom "-v_k_x9166611414 * x"

variable fY9166611414 atom "-v_k_y9166611414 * y"

variable fZ9166611414 atom "-v_k_z9166611414 * z"

variable E9166611414 atom "v_k_x9166611414 * x * x /         2 + v_k_y9166611414 * y * y / 2 + v_k_z9166611414 * z * z / 2"

fix 9166611414 1 addforce         v_fX9166611414 v_fY9166611414 v_fZ9166611414 energy v_E9166611414




variable coolx atom (9.269386030594033e-20+(2.703426035144626e-21*vx))*-0.5000000000000001
variable cooly atom (9.269386030594033e-20+2.703426035144626e-21*vy)*-0.5000000000000001
variable coolz atom (9.269386030594033e-20+2.703426035144626e-21*vz)*-0.7071067811865476
fix 569202603907002 1 addforce v_coolx v_cooly v_coolz



timestep 1e-09


# Run simulation

run 20000
Generated 0 of 0 mixed pair_coeff terms from geometric mixing rule
Neighbor list info ...
  update every 1 steps, delay 10 steps, check yes
  max neighbors/atom: 2000, page size: 100000
  master list distance cutoff = 11
  ghost atom cutoff = 11
  1 neighbor lists, perpetual/occasional/extra = 1 0 0
  (1) pair coul/cut, perpetual
      attributes: half, newton on
      pair build: half/nsq/newton
      stencil: none
      bin: none
WARNING: Proc sub-domain size < neighbor skin, could lead to lost atoms (src/domain.cpp:970)
Per MPI rank memory allocation (min/avg/max) = 1.405 | 1.405 | 1.405 Mbytes
   Step          CPU      
         0   0            
     10000   0.3567267    
     20000   0.72141107   
Loop time of 0.721433 on 1 procs for 20000 steps with 1 atoms

94.7% CPU use with 1 MPI tasks x no OpenMP threads

MPI task timing breakdown:
Section |  min time  |  avg time  |  max time  |%varavg| %total
---------------------------------------------------------------
Pair    | 0.0018658  | 0.0018658  | 0.0018658  |   0.0 |  0.26
Neigh   | 0          | 0          | 0          |   0.0 |  0.00
Comm    | 0.0032633  | 0.0032633  | 0.0032633  |   0.0 |  0.45
Output  | 0.035989   | 0.035989   | 0.035989   |   0.0 |  4.99
Modify  | 0.67465    | 0.67465    | 0.67465    |   0.0 | 93.52
Other   |            | 0.005664   |            |       |  0.79

Nlocal:              1 ave           1 max           1 min
Histogram: 1 0 0 0 0 0 0 0 0 0
Nghost:              0 ave           0 max           0 min
Histogram: 1 0 0 0 0 0 0 0 0 0
Neighs:              0 ave           0 max           0 min
Histogram: 1 0 0 0 0 0 0 0 0 0

Total # of neighbors = 0
Ave neighs/atom = 0
Neighbor list builds = 0
Dangerous builds = 0




timestep 1e-08


# Run simulation

run 20000
Generated 0 of 0 mixed pair_coeff terms from geometric mixing rule
WARNING: Proc sub-domain size < neighbor skin, could lead to lost atoms (src/domain.cpp:970)
Per MPI rank memory allocation (min/avg/max) = 1.405 | 1.405 | 1.405 Mbytes
   Step          CPU      
     20000   0            
     30000   0.3607681    
     40000   0.71423312   
Loop time of 0.714261 on 1 procs for 20000 steps with 1 atoms

95.1% CPU use with 1 MPI tasks x no OpenMP threads

MPI task timing breakdown:
Section |  min time  |  avg time  |  max time  |%varavg| %total
---------------------------------------------------------------
Pair    | 0.0018378  | 0.0018378  | 0.0018378  |   0.0 |  0.26
Neigh   | 0          | 0          | 0          |   0.0 |  0.00
Comm    | 0.0032458  | 0.0032458  | 0.0032458  |   0.0 |  0.45
Output  | 0.032827   | 0.032827   | 0.032827   |   0.0 |  4.60
Modify  | 0.67074    | 0.67074    | 0.67074    |   0.0 | 93.91
Other   |            | 0.005614   |            |       |  0.79

Nlocal:              1 ave           1 max           1 min
Histogram: 1 0 0 0 0 0 0 0 0 0
Nghost:              0 ave           0 max           0 min
Histogram: 1 0 0 0 0 0 0 0 0 0
Neighs:              0 ave           0 max           0 min
Histogram: 1 0 0 0 0 0 0 0 0 0

Total # of neighbors = 0
Ave neighs/atom = 0
Neighbor list builds = 0
Dangerous builds = 0


Total wall time: 0:00:01
