ITEM: TIMESTEP
0
ITEM: NUMBER OF ATOMS
3
ITEM: BOX BOUNDS mm mm mm
-1.0000000000000000e-03 1.0000000000000000e-03
-1.0000000000000000e-03 1.0000000000000000e-03
-1.0000000000000000e-03 1.0000000000000000e-03
ITEM: ATOMS id x y z vx vy vz
1 0.000154884 1.76252e-05 0.000389151 0 0 0
2 -2.3133e-05 2.79432e-05 -0.000211003 0 0 0
3 -0.000461732 0.00023078 0.000204694 0 0 0
ITEM: TIMESTEP
10
ITEM: NUMBER OF ATOMS
3
ITEM: BOX BOUNDS mm mm mm
-1.0000000000000000e-03 1.0000000000000000e-03
-1.0000000000000000e-03 1.0000000000000000e-03
-1.0000000000000000e-03 1.0000000000000000e-03
ITEM: ATOMS id x y z vx vy vz
1 -3.16632e-05 -3.76048e-06 -7.38236e-05 631.97 72.5302 -640.481
2 4.52672e-06 -5.85734e-06 3.7531e-05 -93.5804 114.591 343.874
3 9.35566e-05 -4.70404e-05 -3.96323e-05 -1882 941.614 -337.971
ITEM: TIMESTEP
20
ITEM: NUMBER OF ATOMS
3
ITEM: BOX BOUNDS mm mm mm
-1.0000000000000000e-03 1.0000000000000000e-03
-1.0000000000000000e-03 1.0000000000000000e-03
-1.0000000000000000e-03 1.0000000000000000e-03
ITEM: ATOMS id x y z vx vy vz
1 -0.00012951 -1.5005e-05 -0.000313127 -245.142 -28.0576 279.247
2 1.89967e-05 -2.36155e-05 0.000166103 36.3376 -44.3741 -149.889
3 0.000385091 -0.000192905 -0.000165827 729.429 -364.932 147.474
ITEM: TIMESTEP
30
ITEM: NUMBER OF ATOMS
3
ITEM: BOX BOUNDS mm mm mm
-1.0000000000000000e-03 1.0000000000000000e-03
-1.0000000000000000e-03 1.0000000000000000e-03
-1.0000000000000000e-03 1.0000000000000000e-03
ITEM: ATOMS id x y z vx vy vz
1 7.86838e-05 8.86349e-06 0.000198379 -482.276 -55.4079 441.239
2 -1.18638e-05 1.41082e-05 -0.000108518 71.4261 -87.5013 -236.985
3 -0.000234661 0.000117167 0.00010413 1436.56 -718.767 232.748
ITEM: TIMESTEP
40
ITEM: NUMBER OF ATOMS
3
ITEM: BOX BOUNDS mm mm mm
-1.0000000000000000e-03 1.0000000000000000e-03
-1.0000000000000000e-03 1.0000000000000000e-03
-1.0000000000000000e-03 1.0000000000000000e-03
ITEM: ATOMS id x y z vx vy vz
1 8.74761e-05 9.92665e-06 0.000185545 410.528 46.9957 -437.964
2 -1.31333e-05 1.57566e-05 -0.000101778 -60.9107 74.3046 235.01
3 -0.000261283 0.0001305 9.71381e-05 -1221.43 611.085 -231.325
ITEM: TIMESTEP
50
ITEM: NUMBER OF ATOMS
3
ITEM: BOX BOUNDS mm mm mm
-1.0000000000000000e-03 1.0000000000000000e-03
-1.0000000000000000e-03 1.0000000000000000e-03
-1.0000000000000000e-03 1.0000000000000000e-03
ITEM: ATOMS id x y z vx vy vz
1 -0.000105992 -1.22931e-05 -0.000258627 281.212 32.5243 -196.997
2 1.55402e-05 -1.93301e-05 0.000136801 -41.5057 51.2296 106.096
3 0.000314886 -0.000157779 -0.000137172 -839.41 420.042 -103.617
ITEM: TIMESTEP
60
ITEM: NUMBER OF ATOMS
3
ITEM: BOX BOUNDS mm mm mm
-1.0000000000000000e-03 1.0000000000000000e-03
-1.0000000000000000e-03 1.0000000000000000e-03
-1.0000000000000000e-03 1.0000000000000000e-03
ITEM: ATOMS id x y z vx vy vz
1 -3.91279e-05 -4.70141e-06 -5.35655e-05 -483.379 -55.5561 470.843
2 5.59526e-06 -7.29074e-06 2.68649e-05 71.7097 -87.6534 -252.782
3 0.000116425 -5.85044e-05 -2.86379e-05 1439.52 -720.265 248.726
ITEM: TIMESTEP
70
ITEM: NUMBER OF ATOMS
3
ITEM: BOX BOUNDS mm mm mm
-1.0000000000000000e-03 1.0000000000000000e-03
-1.0000000000000000e-03 1.0000000000000000e-03
-1.0000000000000000e-03 1.0000000000000000e-03
ITEM: ATOMS id x y z vx vy vz
1 0.000111573 1.2691e-05 0.000247485 -69.4895 -8.33117 -32.1339
2 -1.67509e-05 2.01073e-05 -0.000134989 10.0871 -12.9529 16.8847
3 -0.000332874 0.000166323 0.00012997 209.791 -105.053 -17.6261
ITEM: TIMESTEP
80
ITEM: NUMBER OF ATOMS
3
ITEM: BOX BOUNDS mm mm mm
-1.0000000000000000e-03 1.0000000000000000e-03
-1.0000000000000000e-03 1.0000000000000000e-03
-1.0000000000000000e-03 1.0000000000000000e-03
ITEM: ATOMS id x y z vx vy vz
1 -7.88983e-06 -9.51767e-07 -6.38759e-05 467.808 54.0718 -400.36
2 1.07967e-06 -1.46235e-06 3.20031e-05 -69.3031 85.0548 215.14
3 2.20401e-05 -1.12405e-05 -3.48024e-05 -1395.21 698.178 -210.822
ITEM: TIMESTEP
90
ITEM: NUMBER OF ATOMS
3
ITEM: BOX BOUNDS mm mm mm
-1.0000000000000000e-03 1.0000000000000000e-03
-1.0000000000000000e-03 1.0000000000000000e-03
-1.0000000000000000e-03 1.0000000000000000e-03
ITEM: ATOMS id x y z vx vy vz
1 -9.90017e-05 -1.16283e-05 -0.000193291 -117.909 -13.2043 202.721
2 1.44834e-05 -1.81604e-05 0.000101903 17.7943 -20.9874 -108.527
3 0.000294933 -0.000147836 -0.000102083 347.978 -174.032 107.705
ITEM: TIMESTEP
100
ITEM: NUMBER OF ATOMS
3
ITEM: BOX BOUNDS mm mm mm
-1.0000000000000000e-03 1.0000000000000000e-03
-1.0000000000000000e-03 1.0000000000000000e-03
-1.0000000000000000e-03 1.0000000000000000e-03
ITEM: ATOMS id x y z vx vy vz
1 4.5224e-05 4.99832e-06 0.000136686 -381.027 -44.4983 263.51
2 -7.01789e-06 7.98237e-06 -7.53514e-05 56.5641 -69.5934 -141.975
3 -0.000134507 6.70585e-05 7.23783e-05 1138.81 -570.019 138.477
ITEM: TIMESTEP
110
ITEM: NUMBER OF ATOMS
3
ITEM: BOX BOUNDS mm mm mm
-1.0000000000000000e-03 1.0000000000000000e-03
-1.0000000000000000e-03 1.0000000000000000e-03
-1.0000000000000000e-03 1.0000000000000000e-03
ITEM: ATOMS id x y z vx vy vz
1 7.2486e-05 8.36571e-06 0.000107001 255.452 29.2043 -292.015
2 -1.09216e-05 1.31493e-05 -5.98065e-05 -38.3857 45.9997 156.682
3 -0.000217563 0.000108675 5.50815e-05 -758.118 379.32 -155.753
ITEM: TIMESTEP
120
ITEM: NUMBER OF ATOMS
3
ITEM: BOX BOUNDS mm mm mm
-1.0000000000000000e-03 1.0000000000000000e-03
-1.0000000000000000e-03 1.0000000000000000e-03
-1.0000000000000000e-03 1.0000000000000000e-03
ITEM: ATOMS id x y z vx vy vz
1 -6.97141e-05 -8.13883e-06 -0.000171017 248.451 29.4173 -106.321
2 1.02412e-05 -1.27145e-05 8.94598e-05 -36.3311 45.8087 57.2759
3 0.000206622 -0.000103623 -9.00972e-05 -746.64 373.811 -52.4095
ITEM: TIMESTEP
130
ITEM: NUMBER OF ATOMS
3
ITEM: BOX BOUNDS mm mm mm
-1.0000000000000000e-03 1.0000000000000000e-03
-1.0000000000000000e-03 1.0000000000000000e-03
-1.0000000000000000e-03 1.0000000000000000e-03
ITEM: ATOMS id x y z vx vy vz
1 -3.94839e-05 -4.84844e-06 -2.41581e-05 -330.306 -37.7579 302.652
2 5.54997e-06 -7.46464e-06 1.10545e-05 49.1927 -59.6352 -162.169
3 0.00011844 -5.9539e-05 -1.1256e-05 981.745 -491.191 159.759
ITEM: TIMESTEP
140
ITEM: NUMBER OF ATOMS
3
ITEM: BOX BOUNDS mm mm mm
-1.0000000000000000e-03 1.0000000000000000e-03
-1.0000000000000000e-03 1.0000000000000000e-03
-1.0000000000000000e-03 1.0000000000000000e-03
ITEM: ATOMS id x y z vx vy vz
1 7.88489e-05 8.88506e-06 0.000156779 -98.9942 -12.2319 -37.9234
2 -1.19474e-05 1.41249e-05 -8.61481e-05 13.9647 -18.8504 19.9309
3 -0.000235004 0.000117349 8.1511e-05 302.355 -151.487 -23.9554
ITEM: TIMESTEP
150
ITEM: NUMBER OF ATOMS
3
ITEM: BOX BOUNDS mm mm mm
-1.0000000000000000e-03 1.0000000000000000e-03
-1.0000000000000000e-03 1.0000000000000000e-03
-1.0000000000000000e-03 1.0000000000000000e-03
ITEM: ATOMS id x y z vx vy vz
1 4.94547e-06 6.67101e-07 -4.97361e-05 340.426 38.9685 -250.614
2 -6.60199e-07 1.02061e-06 2.43445e-05 -50.1363 61.717 134.664
3 -1.75615e-05 8.60498e-06 -2.90662e-05 -1014.06 507.335 -129.701
ITEM: TIMESTEP
160
ITEM: NUMBER OF ATOMS
3
ITEM: BOX BOUNDS mm mm mm
-1.0000000000000000e-03 1.0000000000000000e-03
-1.0000000000000000e-03 1.0000000000000000e-03
-1.0000000000000000e-03 1.0000000000000000e-03
ITEM: ATOMS id x y z vx vy vz
1 -7.44487e-05 -8.64058e-06 -0.000120175 -42.3717 -3.72824 141.854
2 1.0698e-05 -1.36369e-05 6.26607e-05 7.1371 -6.51782 -75.6631
3 0.000221309 -0.000110943 -6.18803e-05 116.496 -58.0192 77.9922
ITEM: TIMESTEP
170
ITEM: NUMBER OF ATOMS
3
ITEM: BOX BOUNDS mm mm mm
-1.0000000000000000e-03 1.0000000000000000e-03
-1.0000000000000000e-03 1.0000000000000000e-03
-1.0000000000000000e-03 1.0000000000000000e-03
ITEM: ATOMS id x y z vx vy vz
1 2.42907e-05 2.3062e-06 9.2079e-05 -296.002 -33.7036 158.988
2 -4.02493e-06 3.9429e-06 -5.0925e-05 43.0629 -53.7288 -85.7168
3 -7.01085e-05 3.47621e-05 4.94603e-05 882.442 -441.397 79.726
ITEM: TIMESTEP
180
ITEM: NUMBER OF ATOMS
3
ITEM: BOX BOUNDS mm mm mm
-1.0000000000000000e-03 1.0000000000000000e-03
-1.0000000000000000e-03 1.0000000000000000e-03
-1.0000000000000000e-03 1.0000000000000000e-03
ITEM: ATOMS id x y z vx vy vz
1 5.85155e-05 6.56942e-06 6.24264e-05 154.796 16.1136 -192.417
2 -8.62513e-06 1.05583e-05 -3.59864e-05 -23.6536 26.555 102.225
3 -0.000175577 8.7598e-05 2.95336e-05 -448.627 224.042 -103.405
ITEM: TIMESTEP
190
ITEM: NUMBER OF ATOMS
3
ITEM: BOX BOUNDS mm mm mm
-1.0000000000000000e-03 1.0000000000000000e-03
-1.0000000000000000e-03 1.0000000000000000e-03
-1.0000000000000000e-03 1.0000000000000000e-03
ITEM: ATOMS id x y z vx vy vz
1 -4.54212e-05 -4.92474e-06 -0.000111546 209.615 24.4697 -57.4208
2 6.60756e-06 -7.99884e-06 5.77189e-05 -29.1482 38.8454 32.3803
3 0.000131826 -6.60737e-05 -5.97095e-05 -632.6 316.51 -24.9106
ITEM: TIMESTEP
200
ITEM: NUMBER OF ATOMS
3
ITEM: BOX BOUNDS mm mm mm
-1.0000000000000000e-03 1.0000000000000000e-03
-1.0000000000000000e-03 1.0000000000000000e-03
-1.0000000000000000e-03 1.0000000000000000e-03
ITEM: ATOMS id x y z vx vy vz
1 -3.59952e-05 -4.45137e-06 -1.05369e-05 -224.398 -23.7202 193.483
2 4.72703e-06 -6.92014e-06 4.62792e-06 32.9967 -38.9633 -102.992
3 0.000109017 -5.4804e-05 -3.12764e-06 656.044 -327.651 101.54
ITEM: TIMESTEP
210
ITEM: NUMBER OF ATOMS
3
ITEM: BOX BOUNDS mm mm mm
-1.0000000000000000e-03 1.0000000000000000e-03
-1.0000000000000000e-03 1.0000000000000000e-03
-1.0000000000000000e-03 1.0000000000000000e-03
ITEM: ATOMS id x y z vx vy vz
1 5.54987e-05 5.77656e-06 9.9004e-05 -103.874 -13.2643 -32.7117
2 -8.3637e-06 9.57371e-06 -5.51797e-05 13.4263 -20.4835 15.2844
3 -0.000163191 8.12852e-05 5.05268e-05 323.744 -162.238 -22.5359
ITEM: TIMESTEP
220
ITEM: NUMBER OF ATOMS
3
ITEM: BOX BOUNDS mm mm mm
-1.0000000000000000e-03 1.0000000000000000e-03
-1.0000000000000000e-03 1.0000000000000000e-03
-1.0000000000000000e-03 1.0000000000000000e-03
ITEM: ATOMS id x y z vx vy vz
1 1.04412e-05 1.5522e-06 -3.6217e-05 245.049 26.6977 -157.545
2 -1.14828e-06 2.31666e-06 1.60238e-05 -35.19 43.5592 85.9817
3 -3.65131e-05 1.81378e-05 -2.2493e-05 -724.307 361.918 -79.815
ITEM: TIMESTEP
230
ITEM: NUMBER OF ATOMS
3
ITEM: BOX BOUNDS mm mm mm
-1.0000000000000000e-03 1.0000000000000000e-03
-1.0000000000000000e-03 1.0000000000000000e-03
-1.0000000000000000e-03 1.0000000000000000e-03
ITEM: ATOMS id x y z vx vy vz
1 -5.50327e-05 -6.20569e-06 -7.55138e-05 -2.64008 2.19258 95.979
2 7.58088e-06 -9.98729e-06 3.97918e-05 2.39734 2.17926 -49.4566
3 0.000162872 -8.16294e-05 -3.80042e-05 -13.9747 7.5719 54.7368
ITEM: TIMESTEP
240
ITEM: NUMBER OF ATOMS
3
ITEM: BOX BOUNDS mm mm mm
-1.0000000000000000e-03 1.0000000000000000e-03
-1.0000000000000000e-03 1.0000000000000000e-03
-1.0000000000000000e-03 1.0000000000000000e-03
ITEM: ATOMS id x y z vx vy vz
1 1.20333e-05 5.32847e-07 6.01321e-05 -223.496 -25.1691 97.5267
2 -2.52275e-06 1.32307e-06 -3.28394e-05 31.7241 -40.5703 -54.9561
3 -3.03357e-05 1.47785e-05 3.30236e-05 667.033 -333.516 46.2911
ITEM: TIMESTEP
250
ITEM: NUMBER OF ATOMS
3
ITEM: BOX BOUNDS mm mm mm
-1.0000000000000000e-03 1.0000000000000000e-03
-1.0000000000000000e-03 1.0000000000000000e-03
-1.0000000000000000e-03 1.0000000000000000e-03
ITEM: ATOMS id x y z vx vy vz
1 4.53419e-05 5.11999e-06 3.74526e-05 91.7262 7.25497 -124.136
2 -6.48762e-06 8.26016e-06 -2.41576e-05 -15.3969 13.3537 64.2353
3 -0.000137277 6.84423e-05 1.5761e-05 -247.018 122.783 -67.9429
ITEM: TIMESTEP
260
ITEM: NUMBER OF ATOMS
3
ITEM: BOX BOUNDS mm mm mm
-1.0000000000000000e-03 1.0000000000000000e-03
-1.0000000000000000e-03 1.0000000000000000e-03
-1.0000000000000000e-03 1.0000000000000000e-03
ITEM: ATOMS id x y z vx vy vz
1 -2.91747e-05 -2.75936e-06 -7.30243e-05 164.846 20.6379 -34.6825
2 4.50072e-06 -4.72437e-06 3.74467e-05 -21.3446 32.3165 24.0529
3 8.06523e-05 -4.04026e-05 -3.95627e-05 -511.519 256.208 -11.6551
ITEM: TIMESTEP
270
ITEM: NUMBER OF ATOMS
3
ITEM: BOX BOUNDS mm mm mm
-1.0000000000000000e-03 1.0000000000000000e-03
-1.0000000000000000e-03 1.0000000000000000e-03
-1.0000000000000000e-03 1.0000000000000000e-03
ITEM: ATOMS id x y z vx vy vz
1 -2.94123e-05 -4.14391e-06 -6.8245e-06 -149.758 -14.3641 123.005
2 3.56295e-06 -6.22974e-06 4.84183e-06 23.6072 -24.4995 -65.8893
3 9.30153e-05 -4.69111e-05 -1.59499e-07 424.241 -211.554 65.019
ITEM: TIMESTEP
280
ITEM: NUMBER OF ATOMS
3
ITEM: BOX BOUNDS mm mm mm
-1.0000000000000000e-03 1.0000000000000000e-03
-1.0000000000000000e-03 1.0000000000000000e-03
-1.0000000000000000e-03 1.0000000000000000e-03
ITEM: ATOMS id x y z vx vy vz
1 3.81565e-05 3.7309e-06 6.3143e-05 -89.3837 -13.9961 -20.2453
2 -6.20941e-06 6.32368e-06 -3.69513e-05 9.93677 -20.4222 4.74948
3 -0.000110096 5.4736e-05 3.13899e-05 300.3 -151.115 -18.2607
ITEM: TIMESTEP
290
ITEM: NUMBER OF ATOMS
3
ITEM: BOX BOUNDS mm mm mm
-1.0000000000000000e-03 1.0000000000000000e-03
-1.0000000000000000e-03 1.0000000000000000e-03
-1.0000000000000000e-03 1.0000000000000000e-03
ITEM: ATOMS id x y z vx vy vz
1 9.85497e-06 2.27003e-06 -2.27794e-05 165.8 19.5106 -105.084
2 -5.78635e-07 3.12077e-06 7.29395e-06 -25.1035 31.495 65.204
3 -4.14821e-05 2.08041e-05 -1.72012e-05 -498.248 249.365 -52.7563
ITEM: TIMESTEP
300
ITEM: NUMBER OF ATOMS
3
ITEM: BOX BOUNDS mm mm mm
-1.0000000000000000e-03 1.0000000000000000e-03
-1.0000000000000000e-03 1.0000000000000000e-03
-1.0000000000000000e-03 1.0000000000000000e-03
ITEM: ATOMS id x y z vx vy vz
1 -3.7881e-05 -4.82582e-06 -5.23382e-05 8.84362 6.59064 59.8339
2 5.34133e-06 -7.55078e-06 3.16516e-05 2.97927 7.77924 -29.3373
3 0.000115272 -5.79853e-05 -2.50796e-05 -75.3133 38.9668 39.6467
ITEM: TIMESTEP
310
ITEM: NUMBER OF ATOMS
3
ITEM: BOX BOUNDS mm mm mm
-1.0000000000000000e-03 1.0000000000000000e-03
-1.0000000000000000e-03 1.0000000000000000e-03
-1.0000000000000000e-03 1.0000000000000000e-03
ITEM: ATOMS id x y z vx vy vz
1 6.55536e-06 -7.39228e-07 3.60221e-05 -152.72 -21.1289 69.5411
2 -2.49454e-06 -3.86166e-07 -1.99621e-05 22.6076 -31.9031 -47.0249
3 -7.70064e-06 3.32278e-06 2.32515e-05 481.147 -241.863 28.2911
ITEM: TIMESTEP
320
ITEM: NUMBER OF ATOMS
3
ITEM: BOX BOUNDS mm mm mm
-1.0000000000000000e-03 1.0000000000000000e-03
-1.0000000000000000e-03 1.0000000000000000e-03
-1.0000000000000000e-03 1.0000000000000000e-03
ITEM: ATOMS id x y z vx vy vz
1 3.08972e-05 4.59655e-06 2.91773e-05 56.5838 1.26527 -76.2549
2 -4.50085e-06 6.73917e-06 -2.33869e-05 -13.4466 4.63484 40.2125
3 -0.000101612 5.09907e-05 7.85812e-06 -120.823 59.3623 -47.8211
ITEM: TIMESTEP
330
ITEM: NUMBER OF ATOMS
3
ITEM: BOX BOUNDS mm mm mm
-1.0000000000000000e-03 1.0000000000000000e-03
-1.0000000000000000e-03 1.0000000000000000e-03
-1.0000000000000000e-03 1.0000000000000000e-03
ITEM: ATOMS id x y z vx vy vz
1 -1.65792e-05 -1.4908e-06 -4.66534e-05 88.0606 21.6937 -34.6098
2 2.50584e-06 -3.0854e-06 3.60695e-05 -0.629014 32.8168 40.6902
3 4.539e-05 -2.25925e-05 -3.93585e-05 -377.955 189.551 -14.1182
ITEM: TIMESTEP
340
ITEM: NUMBER OF ATOMS
3
ITEM: BOX BOUNDS mm mm mm
-1.0000000000000000e-03 1.0000000000000000e-03
-1.0000000000000000e-03 1.0000000000000000e-03
-1.0000000000000000e-03 1.0000000000000000e-03
ITEM: ATOMS id x y z vx vy vz
1 -1.43029e-05 -4.88333e-06 -1.53282e-05 -80.5281 -9.94369 77.3758
2 -5.72274e-07 -6.63945e-06 1.38628e-05 10.5823 -17.7704 -67.4481
3 7.03801e-05 -3.59659e-05 1.86303e-06 253.162 -126.201 67.3166
ITEM: TIMESTEP
350
ITEM: NUMBER OF ATOMS
3
ITEM: BOX BOUNDS mm mm mm
-1.0000000000000000e-03 1.0000000000000000e-03
-1.0000000000000000e-03 1.0000000000000000e-03
-1.0000000000000000e-03 1.0000000000000000e-03
ITEM: ATOMS id x y z vx vy vz
1 1.91268e-05 3.08917e-06 3.75334e-05 -30.2789 -19.4269 1.27566
2 -2.79421e-06 4.99171e-06 -3.97759e-05 -8.44875 -23.0173 -11.8007
3 -6.74552e-05 3.40056e-05 3.65607e-05 233.212 -120.937 -16.149
ITEM: TIMESTEP
360
ITEM: NUMBER OF ATOMS
3
ITEM: BOX BOUNDS mm mm mm
-1.0000000000000000e-03 1.0000000000000000e-03
-1.0000000000000000e-03 1.0000000000000000e-03
-1.0000000000000000e-03 1.0000000000000000e-03
ITEM: ATOMS id x y z vx vy vz
1 -4.11314e-07 3.83887e-06 6.24372e-07 18.0819 17.2478 -37.443
2 3.33336e-06 4.01061e-06 -6.07623e-07 48.949 28.4825 64.0381
3 -3.49243e-05 1.81745e-05 -2.47747e-05 -309.495 157.958 -82.8573
ITEM: TIMESTEP
370
ITEM: NUMBER OF ATOMS
3
ITEM: BOX BOUNDS mm mm mm
-1.0000000000000000e-03 1.0000000000000000e-03
-1.0000000000000000e-03 1.0000000000000000e-03
-1.0000000000000000e-03 1.0000000000000000e-03
ITEM: ATOMS id x y z vx vy vz
1 6.87703e-06 -4.04979e-06 -1.49915e-05 10.0723 15.0106 -0.191746
2 -2.25608e-05 -7.62546e-06 2.67613e-05 -11.2562 10.7459 -8.81611
3 7.36588e-05 -3.78884e-05 -4.0546e-05 -82.7046 44.7162 57.0356
ITEM: TIMESTEP
380
ITEM: NUMBER OF ATOMS
3
ITEM: BOX BOUNDS mm mm mm
-1.0000000000000000e-03 1.0000000000000000e-03
-1.0000000000000000e-03 1.0000000000000000e-03
-1.0000000000000000e-03 1.0000000000000000e-03
ITEM: ATOMS id x y z vx vy vz
1 -5.12707e-06 -3.0904e-06 6.43534e-06 6.26332 -24.3093 22.4535
2 9.01755e-06 -8.53316e-07 -6.24997e-06 -83.2605 -31.5568 -42.4735
3 1.85183e-06 -1.74059e-06 2.47337e-05 330.823 -157.366 48.5071
ITEM: TIMESTEP
390
ITEM: NUMBER OF ATOMS
3
ITEM: BOX BOUNDS mm mm mm
-1.0000000000000000e-03 1.0000000000000000e-03
-1.0000000000000000e-03 1.0000000000000000e-03
-1.0000000000000000e-03 1.0000000000000000e-03
ITEM: ATOMS id x y z vx vy vz
1 6.66932e-07 5.9255e-06 1.16266e-05 -19.7436 -8.09417 -18.703
2 1.52331e-05 6.59519e-06 -2.87254e-05 54.638 2.5135 14.6377
3 -7.21342e-05 3.38598e-05 2.20963e-05 -56.3864 23.6356 -50.6044
ITEM: TIMESTEP
400
ITEM: NUMBER OF ATOMS
3
ITEM: BOX BOUNDS mm mm mm
-1.0000000000000000e-03 1.0000000000000000e-03
-1.0000000000000000e-03 1.0000000000000000e-03
-1.0000000000000000e-03 1.0000000000000000e-03
ITEM: ATOMS id x y z vx vy vz
1 4.1801e-06 -6.21893e-07 3.83043e-06 33.6497 31.399 11.5431
2 -1.76476e-05 -1.0866e-06 -3.55326e-06 37.9782 25.8295 16.1429
3 2.88812e-05 -1.21005e-05 -3.3787e-05 -295.102 130.507 -28.8519
ITEM: TIMESTEP
410
ITEM: NUMBER OF ATOMS
3
ITEM: BOX BOUNDS mm mm mm
-1.0000000000000000e-03 1.0000000000000000e-03
-1.0000000000000000e-03 1.0000000000000000e-03
-1.0000000000000000e-03 1.0000000000000000e-03
ITEM: ATOMS id x y z vx vy vz
1 -1.0352e-05 -6.02931e-06 2.71707e-05 -10.8563 -16.0968 11.1163
2 -2.06357e-06 -6.46163e-06 -1.27428e-05 -57.639 0.456239 -15.2679
3 5.67335e-05 -2.55998e-05 -1.36022e-05 174.486 -73.3992 52.7268
ITEM: TIMESTEP
420
ITEM: NUMBER OF ATOMS
3
ITEM: BOX BOUNDS mm mm mm
-1.0000000000000000e-03 1.0000000000000000e-03
-1.0000000000000000e-03 1.0000000000000000e-03
-1.0000000000000000e-03 1.0000000000000000e-03
ITEM: ATOMS id x y z vx vy vz
1 5.95177e-06 4.16635e-06 6.48063e-06 -42.801 -19.8669 -35.828
2 1.25162e-05 9.41953e-07 -1.19147e-05 5.63814 -27.1558 11.5098
3 -5.07455e-05 2.11469e-05 2.51175e-05 200.266 -89.9962 4.12516
ITEM: TIMESTEP
430
ITEM: NUMBER OF ATOMS
3
ITEM: BOX BOUNDS mm mm mm
-1.0000000000000000e-03 1.0000000000000000e-03
-1.0000000000000000e-03 1.0000000000000000e-03
-1.0000000000000000e-03 1.0000000000000000e-03
ITEM: ATOMS id x y z vx vy vz
1 1.87552e-06 2.94432e-06 -2.34461e-05 58.2956 15.1748 -26.8975
2 1.16595e-05 1.07973e-05 -1.11904e-06 121.006 58.0064 -28.9198
3 -4.26049e-05 9.81891e-06 5.82336e-06 -339.119 61.0781 21.9302
ITEM: TIMESTEP
440
ITEM: NUMBER OF ATOMS
3
ITEM: BOX BOUNDS mm mm mm
-1.0000000000000000e-03 1.0000000000000000e-03
-1.0000000000000000e-03 1.0000000000000000e-03
-1.0000000000000000e-03 1.0000000000000000e-03
ITEM: ATOMS id x y z vx vy vz
1 -1.22673e-05 -3.08248e-06 -2.10428e-05 5.12035 16.1253 26.5138
2 -2.96838e-05 -1.57706e-05 -7.83432e-06 16.0905 27.8356 19.9434
3 8.15845e-05 -1.53023e-05 1.034e-05 -108.384 29.2711 -13.9012
ITEM: TIMESTEP
450
ITEM: NUMBER OF ATOMS
3
ITEM: BOX BOUNDS mm mm mm
-1.0000000000000000e-03 1.0000000000000000e-03
-1.0000000000000000e-03 1.0000000000000000e-03
-1.0000000000000000e-03 1.0000000000000000e-03
ITEM: ATOMS id x y z vx vy vz
1 -2.43874e-06 -5.34333e-06 -4.67516e-06 -56.7858 -18.5344 5.60944
2 6.66196e-06 -7.00626e-07 2.94211e-06 -130.241 -55.7357 6.0411
3 5.92976e-06 -3.34565e-06 1.68902e-05 366.654 -76.63 3.92245
ITEM: TIMESTEP
460
ITEM: NUMBER OF ATOMS
3
ITEM: BOX BOUNDS mm mm mm
-1.0000000000000000e-03 1.0000000000000000e-03
-1.0000000000000000e-03 1.0000000000000000e-03
-1.0000000000000000e-03 1.0000000000000000e-03
ITEM: ATOMS id x y z vx vy vz
1 1.44042e-05 5.83633e-06 -2.04564e-05 0.687732 -18.7002 -1.22187
2 2.45286e-05 9.65034e-06 2.45517e-05 55.4137 7.50787 9.8012
3 -8.01229e-05 1.82558e-05 -3.83594e-06 -45.919 2.63829 -44.0052
ITEM: TIMESTEP
470
ITEM: NUMBER OF ATOMS
3
ITEM: BOX BOUNDS mm mm mm
-1.0000000000000000e-03 1.0000000000000000e-03
-1.0000000000000000e-03 1.0000000000000000e-03
-1.0000000000000000e-03 1.0000000000000000e-03
ITEM: ATOMS id x y z vx vy vz
1 -4.00478e-06 2.77962e-06 -1.26913e-06 76.8259 34.5956 22.8302
2 -1.81096e-05 -4.1047e-06 3.96362e-06 82.1988 35.0148 -33.3623
3 2.76865e-05 -4.21629e-06 -2.55519e-05 -326.986 71.4895 12.3145
ITEM: TIMESTEP
480
ITEM: NUMBER OF ATOMS
3
ITEM: BOX BOUNDS mm mm mm
-1.0000000000000000e-03 1.0000000000000000e-03
-1.0000000000000000e-03 1.0000000000000000e-03
-1.0000000000000000e-03 1.0000000000000000e-03
ITEM: ATOMS id x y z vx vy vz
1 -1.85739e-05 -9.56977e-06 2.12792e-05 -47.8152 -3.14084 6.02657
2 -1.14284e-05 -5.48219e-06 -2.75511e-05 -74.3451 -13.4076 -12.9434
3 6.43863e-05 -1.46935e-05 6.61035e-06 177.773 -30.1706 37.2848
ITEM: TIMESTEP
490
ITEM: NUMBER OF ATOMS
3
ITEM: BOX BOUNDS mm mm mm
-1.0000000000000000e-03 1.0000000000000000e-03
-1.0000000000000000e-03 1.0000000000000000e-03
-1.0000000000000000e-03 1.0000000000000000e-03
ITEM: ATOMS id x y z vx vy vz
1 1.6515e-05 3.02117e-06 5.25139e-08 -71.4174 -38.987 -16.0192
2 1.77228e-05 3.4829e-06 -7.93765e-06 -31.1494 -19.5081 20.296
3 -5.36893e-05 8.97638e-06 1.84158e-05 234.447 -52.2946 -19.1089
ITEM: TIMESTEP
500
ITEM: NUMBER OF ATOMS
3
ITEM: BOX BOUNDS mm mm mm
-1.0000000000000000e-03 1.0000000000000000e-03
-1.0000000000000000e-03 1.0000000000000000e-03
-1.0000000000000000e-03 1.0000000000000000e-03
ITEM: ATOMS id x y z vx vy vz
1 1.35001e-05 8.40834e-06 9.93841e-06 105.719 30.2136 16.7441
2 2.4273e-06 1.51065e-06 -1.64248e-05 74.3467 -1.08095 -33.9207
3 -4.08829e-05 1.01852e-05 -7.82891e-06 -281.816 56.345 -3.04434
ITEM: TIMESTEP
510
ITEM: NUMBER OF ATOMS
3
ITEM: BOX BOUNDS mm mm mm
-1.0000000000000000e-03 1.0000000000000000e-03
-1.0000000000000000e-03 1.0000000000000000e-03
-1.0000000000000000e-03 1.0000000000000000e-03
ITEM: ATOMS id x y z vx vy vz
1 -2.63698e-05 -8.62353e-06 1.00478e-05 33.3371 28.1208 -15.6058
2 -1.66033e-05 6.84553e-08 -2.1039e-05 -3.19707 8.5872 25.4924
3 6.93045e-05 -1.44256e-05 -1.43224e-06 -111.244 31.4253 11.9865
ITEM: TIMESTEP
520
ITEM: NUMBER OF ATOMS
3
ITEM: BOX BOUNDS mm mm mm
-1.0000000000000000e-03 1.0000000000000000e-03
-1.0000000000000000e-03 1.0000000000000000e-03
-1.0000000000000000e-03 1.0000000000000000e-03
ITEM: ATOMS id x y z vx vy vz
1 3.15118e-06 -9.44872e-07 -7.8951e-07 -109.993 -14.8227 -24.1516
2 -3.08776e-07 -5.71358e-06 2.9111e-06 -93.4626 -24.7679 24.7126
3 8.69429e-06 -3.89357e-06 6.47333e-06 327.712 -64.7941 7.66302
ITEM: TIMESTEP
530
ITEM: NUMBER OF ATOMS
3
ITEM: BOX BOUNDS mm mm mm
-1.0000000000000000e-03 1.0000000000000000e-03
-1.0000000000000000e-03 1.0000000000000000e-03
-1.0000000000000000e-03 1.0000000000000000e-03
ITEM: ATOMS id x y z vx vy vz
1 2.17858e-05 -7.48303e-07 -2.9562e-05 32.8257 -8.88279 3.64196
2 2.46394e-05 1.00547e-05 2.26071e-05 23.9989 -10.1514 -5.72402
3 -7.60034e-05 1.46811e-05 4.70546e-06 -30.7857 -2.84042 -20.7413
ITEM: TIMESTEP
540
ITEM: NUMBER OF ATOMS
3
ITEM: BOX BOUNDS mm mm mm
-1.0000000000000000e-03 1.0000000000000000e-03
-1.0000000000000000e-03 1.0000000000000000e-03
-1.0000000000000000e-03 1.0000000000000000e-03
ITEM: ATOMS id x y z vx vy vz
1 -1.1659e-05 4.69877e-06 -2.22838e-06 83.6598 26.8667 23.7223
2 -1.11887e-05 -2.77003e-06 -1.17869e-06 95.8355 15.8996 -16.1264
3 2.26687e-05 -2.63871e-06 -1.25849e-05 -303.023 61.0061 -4.85706
ITEM: TIMESTEP
550
ITEM: NUMBER OF ATOMS
3
ITEM: BOX BOUNDS mm mm mm
-1.0000000000000000e-03 1.0000000000000000e-03
-1.0000000000000000e-03 1.0000000000000000e-03
-1.0000000000000000e-03 1.0000000000000000e-03
ITEM: ATOMS id x y z vx vy vz
1 -1.56954e-05 -1.2382e-05 2.12254e-05 -61.2557 -7.25899 6.85659
2 -2.20168e-05 3.70725e-06 -1.39027e-05 -79.9056 13.3145 -7.23133
3 6.37154e-05 -1.40302e-05 -7.77745e-06 165.123 -26.1851 19.2448
ITEM: TIMESTEP
560
ITEM: NUMBER OF ATOMS
3
ITEM: BOX BOUNDS mm mm mm
-1.0000000000000000e-03 1.0000000000000000e-03
-1.0000000000000000e-03 1.0000000000000000e-03
-1.0000000000000000e-03 1.0000000000000000e-03
ITEM: ATOMS id x y z vx vy vz
1 1.65122e-05 4.89831e-06 4.85277e-06 -54.4381 -44.9419 -26.6296
2 2.22773e-05 -4.87928e-06 -9.10212e-06 -71.7718 9.40499 10.7521
3 -4.97505e-05 8.32875e-06 9.09036e-06 229.748 -51.4431 5.22695
ITEM: TIMESTEP
570
ITEM: NUMBER OF ATOMS
3
ITEM: BOX BOUNDS mm mm mm
-1.0000000000000000e-03 1.0000000000000000e-03
-1.0000000000000000e-03 1.0000000000000000e-03
-1.0000000000000000e-03 1.0000000000000000e-03
ITEM: ATOMS id x y z vx vy vz
1 1.06523e-05 6.18424e-06 2.86272e-06 98.299 38.237 4.00935
2 9.1407e-06 9.28248e-07 -2.01654e-05 101.855 -32.4963 -6.45692
3 -4.03769e-05 9.31916e-06 6.17004e-06 -262.049 46.2553 -9.49083
ITEM: TIMESTEP
580
ITEM: NUMBER OF ATOMS
3
ITEM: BOX BOUNDS mm mm mm
-1.0000000000000000e-03 1.0000000000000000e-03
-1.0000000000000000e-03 1.0000000000000000e-03
-1.0000000000000000e-03 1.0000000000000000e-03
ITEM: ATOMS id x y z vx vy vz
1 -2.53062e-05 -9.53319e-06 9.59723e-06 25.2817 11.5911 8.10507
2 -2.43875e-05 6.90167e-06 -1.07879e-05 18.3119 17.61 16.937
3 6.65826e-05 -1.24167e-05 -7.62057e-06 -114.219 30.1299 -10.4632
ITEM: TIMESTEP
590
ITEM: NUMBER OF ATOMS
3
ITEM: BOX BOUNDS mm mm mm
-1.0000000000000000e-03 1.0000000000000000e-03
-1.0000000000000000e-03 1.0000000000000000e-03
-1.0000000000000000e-03 1.0000000000000000e-03
ITEM: ATOMS id x y z vx vy vz
1 -3.00641e-07 1.91807e-06 1.57905e-05 -108.715 -32.3815 0.031686
2 1.47039e-06 -8.15755e-06 -5.24967e-07 -115.486 12.9281 -1.3748
3 1.00242e-05 -4.02464e-06 -1.10466e-05 308.014 -50.956 5.47125
ITEM: TIMESTEP
600
ITEM: NUMBER OF ATOMS
3
ITEM: BOX BOUNDS mm mm mm
-1.0000000000000000e-03 1.0000000000000000e-03
-1.0000000000000000e-03 1.0000000000000000e-03
-1.0000000000000000e-03 1.0000000000000000e-03
ITEM: ATOMS id x y z vx vy vz
1 2.38441e-05 4.45947e-06 9.84476e-06 20.6293 16.299 -13.2393
2 2.67341e-05 1.88578e-06 -1.50216e-05 33.3156 -36.0582 -18.7954
3 -7.14015e-05 1.02875e-05 1.66305e-06 -21.8439 -7.20797 17.4137
ITEM: TIMESTEP
610
ITEM: NUMBER OF ATOMS
3
ITEM: BOX BOUNDS mm mm mm
-1.0000000000000000e-03 1.0000000000000000e-03
-1.0000000000000000e-03 1.0000000000000000e-03
-1.0000000000000000e-03 1.0000000000000000e-03
ITEM: ATOMS id x y z vx vy vz
1 -1.01832e-05 -4.28071e-06 -2.35487e-06 99.9651 4.52426 0.287143
2 -1.33341e-05 7.3174e-06 -1.8567e-05 100.538 22.5129 8.95632
3 2.02678e-05 -1.1672e-06 9.32957e-06 -289.442 47.6788 -6.48635
ITEM: TIMESTEP
620
ITEM: NUMBER OF ATOMS
3
ITEM: BOX BOUNDS mm mm mm
-1.0000000000000000e-03 1.0000000000000000e-03
-1.0000000000000000e-03 1.0000000000000000e-03
-1.0000000000000000e-03 1.0000000000000000e-03
ITEM: ATOMS id x y z vx vy vz
1 -2.10852e-05 2.0815e-06 1.42732e-05 -67.1329 -3.20292 25.3866
2 -1.89514e-05 -8.42256e-06 -1.25066e-05 -74.3889 13.7826 1.09809
3 5.92319e-05 -1.06448e-05 -3.0315e-06 146.581 -14.8297 -14.8342
ITEM: TIMESTEP
630
ITEM: NUMBER OF ATOMS
3
ITEM: BOX BOUNDS mm mm mm
-1.0000000000000000e-03 1.0000000000000000e-03
-1.0000000000000000e-03 1.0000000000000000e-03
-1.0000000000000000e-03 1.0000000000000000e-03
ITEM: ATOMS id x y z vx vy vz
1 1.87533e-05 -6.99405e-07 1.5526e-05 -72.7164 8.79422 -21.0367
2 2.26934e-05 4.96468e-07 -5.46072e-06 -70.2361 -39.9249 7.30538
3 -4.69729e-05 3.98505e-06 -8.73859e-06 222.212 -35.4535 6.21816
ITEM: TIMESTEP
640
ITEM: NUMBER OF ATOMS
3
ITEM: BOX BOUNDS mm mm mm
-1.0000000000000000e-03 1.0000000000000000e-03
-1.0000000000000000e-03 1.0000000000000000e-03
-1.0000000000000000e-03 1.0000000000000000e-03
ITEM: ATOMS id x y z vx vy vz
1 1.65605e-05 2.29174e-06 1.33961e-06 114.218 -11.7353 7.55562
2 9.11314e-06 3.96455e-06 -1.01282e-05 125.681 16.3586 -38.8656
3 -4.21413e-05 6.71741e-06 -9.65964e-08 -275.15 24.9901 24.3486
ITEM: TIMESTEP
650
ITEM: NUMBER OF ATOMS
3
ITEM: BOX BOUNDS mm mm mm
-1.0000000000000000e-03 1.0000000000000000e-03
-1.0000000000000000e-03 1.0000000000000000e-03
-1.0000000000000000e-03 1.0000000000000000e-03
ITEM: ATOMS id x y z vx vy vz
1 -3.08002e-05 2.16472e-06 9.93536e-06 45.372 14.9862 -2.8521
2 -2.82298e-05 -4.82532e-06 -2.86021e-05 15.2833 11.2007 18.4705
3 6.93652e-05 -6.88209e-06 1.19636e-05 -119.408 23.1697 -5.97199
ITEM: TIMESTEP
660
ITEM: NUMBER OF ATOMS
3
ITEM: BOX BOUNDS mm mm mm
-1.0000000000000000e-03 1.0000000000000000e-03
-1.0000000000000000e-03 1.0000000000000000e-03
-1.0000000000000000e-03 1.0000000000000000e-03
ITEM: ATOMS id x y z vx vy vz
1 -8.05962e-07 -8.34077e-06 5.5874e-06 -140.256 -16.5243 11.3763
2 2.30129e-07 2.82742e-06 1.2062e-06 -120.412 2.94076 14.4154
3 1.05438e-05 -3.72083e-06 -5.47152e-06 315.563 -32.5324 -23.8848
ITEM: TIMESTEP
670
ITEM: NUMBER OF ATOMS
3
ITEM: BOX BOUNDS mm mm mm
-1.0000000000000000e-03 1.0000000000000000e-03
-1.0000000000000000e-03 1.0000000000000000e-03
-1.0000000000000000e-03 1.0000000000000000e-03
ITEM: ATOMS id x y z vx vy vz
1 2.81643e-05 5.62725e-06 1.97702e-05 35.5832 -2.91793 11.5136
2 2.90352e-05 -2.22764e-06 -7.40504e-06 15.7671 -16.2251 -30.1122
3 -7.15646e-05 7.80776e-06 -1.64671e-05 -18.9155 -8.10467 9.2845
ITEM: TIMESTEP
680
ITEM: NUMBER OF ATOMS
3
ITEM: BOX BOUNDS mm mm mm
-1.0000000000000000e-03 1.0000000000000000e-03
-1.0000000000000000e-03 1.0000000000000000e-03
-1.0000000000000000e-03 1.0000000000000000e-03
ITEM: ATOMS id x y z vx vy vz
1 -1.38038e-05 -9.99984e-07 6.17811e-06 107.152 22.6938 -30.4592
2 -1.02604e-05 4.09848e-06 -2.16291e-05 119.073 -3.87426 9.42488
3 1.94383e-05 -7.27776e-08 6.66252e-06 -288.887 33.8214 23.4263
ITEM: TIMESTEP
690
ITEM: NUMBER OF ATOMS
3
ITEM: BOX BOUNDS mm mm mm
-1.0000000000000000e-03 1.0000000000000000e-03
-1.0000000000000000e-03 1.0000000000000000e-03