LAMMPS (23 Jun 2022)
##################################################################
# LAMMPS input file generated using pylion 0.5.3
# simulation name: test
#
# pylion is written and maintained by Dimitris Trypogeorgos
# and Elliot Bentine. Download it from
# https://bitbucket.org/dtrypogeorgos/pylion
#
# If you find it useful please cite <paper>.
##################################################################



units si
atom_style charge

# Creating simulation box...
boundary m m m
region simulationDomain block -0.001  0.001 -0.001 0.001 -0.001 0.001 units box
create_box 1 simulationDomain
Created orthogonal box = (-0.001 -0.001 -0.001) to (0.001 0.001 0.001)
  1 by 1 by 1 MPI processor grid

# Configure neighbour list...
neighbor 1 nsq
neigh_modify once yes

# Configure pairwise interactions for long range Coulombics only...
pair_style coul/cut 10
pair_coeff * *

# Placing individual ions...


create_atoms 1 single 0.00015488391963089008 1.7625238812943194e-05 0.0003891514996006731 units box
Created 1 atoms
  using box units in orthogonal box = (-0.001 -0.001 -0.001) to (0.001 0.001 0.001)
  create_atoms CPU = 0.000 seconds

create_atoms 1 single -2.3133010135305894e-05 2.7943184367877478e-05 -0.00021100339576360185 units box
Created 1 atoms
  using box units in orthogonal box = (-0.001 -0.001 -0.001) to (0.001 0.001 0.001)
  create_atoms CPU = 0.000 seconds

create_atoms 1 single -0.0004617321940485367 0.00023078027514312775 0.0002046943024193267 units box
Created 1 atoms
  using box units in orthogonal box = (-0.001 -0.001 -0.001) to (0.001 0.001 0.001)
  create_atoms CPU = 0.000 seconds


# Species...
mass 1 1.4944851e-26
set type 1 charge 1.6021764599999998e-19
Setting atom values ...
  3 settings made for charge
group 1 type 1
3 atoms in group 1


timestep 1e-06

# Configuring additional output to flush buffer during simulation...
thermo 10000
thermo_style custom step cpu
thermo_modify flush yes

# Time integration...

group nonRigidBody union all
3 atoms in group nonRigidBody

fix timeIntegrator nonRigidBody nve



dump 9287321730 all custom 10 /Users/michaelmitchell/qlicS/data/2024-07-11_14-05-13/positions.txt id x y z vx vy vz





# Pseudopotential approximation for Linear Paul trap... (fixID=9291903384)


# SHO

variable k_x9291903384		equal 2.973789e-13

variable k_y9291903384		equal 2.973789e-13

variable k_z9291903384		equal 4.835556e-14

variable fX9291903384 atom "-v_k_x9291903384 * x"

variable fY9291903384 atom "-v_k_y9291903384 * y"

variable fZ9291903384 atom "-v_k_z9291903384 * z"

variable E9291903384 atom "v_k_x9291903384 * x * x /         2 + v_k_y9291903384 * y * y / 2 + v_k_z9291903384 * z * z / 2"

fix 9291903384 1 addforce         v_fX9291903384 v_fY9291903384 v_fZ9291903384 energy v_E9291903384




variable coolx atom (9.269386030594033e-20+(2.703426035144626e-21*vx))*-0.5000000000000001
variable cooly atom (9.269386030594033e-20+2.703426035144626e-21*vy)*-0.5000000000000001
variable coolz atom (9.269386030594033e-20+2.703426035144626e-21*vz)*-0.7071067811865476
fix 569202603907002 1 addforce v_coolx v_cooly v_coolz



timestep 1e-07


# Run simulation

run 50000
Generated 0 of 0 mixed pair_coeff terms from geometric mixing rule
Neighbor list info ...
  update every 1 steps, delay 10 steps, check yes
  max neighbors/atom: 2000, page size: 100000
  master list distance cutoff = 11
  ghost atom cutoff = 11
  1 neighbor lists, perpetual/occasional/extra = 1 0 0
  (1) pair coul/cut, perpetual
      attributes: half, newton on
      pair build: half/nsq/newton
      stencil: none
      bin: none
WARNING: Proc sub-domain size < neighbor skin, could lead to lost atoms (src/domain.cpp:970)
Per MPI rank memory allocation (min/avg/max) = 5.28 | 5.28 | 5.28 Mbytes
   Step          CPU      
         0   0            
     10000   0.37520394   
     20000   0.96631339   
     30000   1.5763015    
     40000   2.0102809    
     50000   2.4828518    
Loop time of 2.48288 on 1 procs for 50000 steps with 3 atoms

79.3% CPU use with 1 MPI tasks x no OpenMP threads

MPI task timing breakdown:
Section |  min time  |  avg time  |  max time  |%varavg| %total
---------------------------------------------------------------
Pair    | 0.022253   | 0.022253   | 0.022253   |   0.0 |  0.90
Neigh   | 0          | 0          | 0          |   0.0 |  0.00
Comm    | 0.0084855  | 0.0084855  | 0.0084855  |   0.0 |  0.34
Output  | 0.16992    | 0.16992    | 0.16992    |   0.0 |  6.84
Modify  | 2.2628     | 2.2628     | 2.2628     |   0.0 | 91.14
Other   |            | 0.01943    |            |       |  0.78

Nlocal:              3 ave           3 max           3 min
Histogram: 1 0 0 0 0 0 0 0 0 0
Nghost:              0 ave           0 max           0 min
Histogram: 1 0 0 0 0 0 0 0 0 0
Neighs:              3 ave           3 max           3 min
Histogram: 1 0 0 0 0 0 0 0 0 0

Total # of neighbors = 3
Ave neighs/atom = 1
Neighbor list builds = 0
Dangerous builds = 0


Total wall time: 0:00:02
