LAMMPS (23 Jun 2022)
##################################################################
# LAMMPS input file generated using pylion 0.5.3
# simulation name: test
#
# pylion is written and maintained by Dimitris Trypogeorgos
# and Elliot Bentine. Download it from
# https://bitbucket.org/dtrypogeorgos/pylion
#
# If you find it useful please cite <paper>.
##################################################################


# Enabling GPU acceleration via CUDA...
package gpu 1
ERROR: Package gpu command without GPU package installed (src/input.cpp:1637)
Last command: package gpu 1
