LAMMPS (23 Jun 2022)
##################################################################
# LAMMPS input file generated using pylion 0.5.3
# simulation name: test
#
# pylion is written and maintained by Dimitris Trypogeorgos
# and Elliot Bentine. Download it from
# https://bitbucket.org/dtrypogeorgos/pylion
#
# If you find it useful please cite <paper>.
##################################################################



units si
atom_style charge

# Creating simulation box...
boundary m m m
region simulationDomain block -0.001  0.001 -0.001 0.001 -0.001 0.001 units box
create_box 1 simulationDomain
Created orthogonal box = (-0.001 -0.001 -0.001) to (0.001 0.001 0.001)
  1 by 1 by 1 MPI processor grid

# Configure neighbour list...
neighbor 1 nsq
neigh_modify once yes

# Configure pairwise interactions for long range Coulombics only...
pair_style coul/cut 10
pair_coeff * *

# Placing individual ions...


create_atoms 1 single -0.0001806685603089822 -7.783288841553992e-05 0.000943903596539716 units box
Created 1 atoms
  using box units in orthogonal box = (-0.001 -0.001 -0.001) to (0.001 0.001 0.001)
  create_atoms CPU = 0.001 seconds


# Species...
mass 1 1.4944851e-26
set type 1 charge 1.6021764599999998e-19
Setting atom values ...
  1 settings made for charge
group 1 type 1
1 atoms in group 1


timestep 1e-06

# Configuring additional output to flush buffer during simulation...
thermo 10000
thermo_style custom step cpu
thermo_modify flush yes

# Time integration...

group nonRigidBody union all
1 atoms in group nonRigidBody

fix timeIntegrator nonRigidBody nve



dump 9272336468 all custom 10 /Users/michaelmitchell/qlicS/data/2024-07-11_16-45-51/positions.txt id x y z vx vy vz





# Pseudopotential approximation for Linear Paul trap... (fixID=9272616583)


# SHO

variable k_x9272616583		equal 2.973789e-13

variable k_y9272616583		equal 2.973789e-13

variable k_z9272616583		equal 4.835556e-14

variable fX9272616583 atom "-v_k_x9272616583 * x"

variable fY9272616583 atom "-v_k_y9272616583 * y"

variable fZ9272616583 atom "-v_k_z9272616583 * z"

variable E9272616583 atom "v_k_x9272616583 * x * x /         2 + v_k_y9272616583 * y * y / 2 + v_k_z9272616583 * z * z / 2"

fix 9272616583 1 addforce         v_fX9272616583 v_fY9272616583 v_fZ9272616583 energy v_E9272616583




variable coolx atom (9.269386030594033e-20+(2.703426035144626e-21*vx))*-0.5000000000000001
variable cooly atom (9.269386030594033e-20+2.703426035144626e-21*vy)*-0.5000000000000001
variable coolz atom (9.269386030594033e-20+2.703426035144626e-21*vz)*-0.7071067811865476
fix 569202603907002 1 addforce v_coolx v_cooly v_coolz



timestep 1e-09


# Run simulation

run 20000
Generated 0 of 0 mixed pair_coeff terms from geometric mixing rule
Neighbor list info ...
  update every 1 steps, delay 10 steps, check yes
  max neighbors/atom: 2000, page size: 100000
  master list distance cutoff = 11
  ghost atom cutoff = 11
  1 neighbor lists, perpetual/occasional/extra = 1 0 0
  (1) pair coul/cut, perpetual
      attributes: half, newton on
      pair build: half/nsq/newton
      stencil: none
      bin: none
WARNING: Proc sub-domain size < neighbor skin, could lead to lost atoms (src/domain.cpp:970)
Per MPI rank memory allocation (min/avg/max) = 1.405 | 1.405 | 1.405 Mbytes
   Step          CPU      
         0   0            
     10000   0.53788831   
     20000   0.89619304   
Loop time of 0.896225 on 1 procs for 20000 steps with 1 atoms

79.5% CPU use with 1 MPI tasks x no OpenMP threads

MPI task timing breakdown:
Section |  min time  |  avg time  |  max time  |%varavg| %total
---------------------------------------------------------------
Pair    | 0.0021662  | 0.0021662  | 0.0021662  |   0.0 |  0.24
Neigh   | 0          | 0          | 0          |   0.0 |  0.00
Comm    | 0.0052221  | 0.0052221  | 0.0052221  |   0.0 |  0.58
Output  | 0.056171   | 0.056171   | 0.056171   |   0.0 |  6.27
Modify  | 0.8125     | 0.8125     | 0.8125     |   0.0 | 90.66
Other   |            | 0.02017    |            |       |  2.25

Nlocal:              1 ave           1 max           1 min
Histogram: 1 0 0 0 0 0 0 0 0 0
Nghost:              0 ave           0 max           0 min
Histogram: 1 0 0 0 0 0 0 0 0 0
Neighs:              0 ave           0 max           0 min
Histogram: 1 0 0 0 0 0 0 0 0 0

Total # of neighbors = 0
Ave neighs/atom = 0
Neighbor list builds = 0
Dangerous builds = 0




timestep 1e-08


# Run simulation

run 20000
Generated 0 of 0 mixed pair_coeff terms from geometric mixing rule
WARNING: Proc sub-domain size < neighbor skin, could lead to lost atoms (src/domain.cpp:970)
Per MPI rank memory allocation (min/avg/max) = 1.405 | 1.405 | 1.405 Mbytes
   Step          CPU      
     20000   0            
     30000   0.3967545    
     40000   0.78640623   
Loop time of 0.786427 on 1 procs for 20000 steps with 1 atoms

91.6% CPU use with 1 MPI tasks x no OpenMP threads

MPI task timing breakdown:
Section |  min time  |  avg time  |  max time  |%varavg| %total
---------------------------------------------------------------
Pair    | 0.0022807  | 0.0022807  | 0.0022807  |   0.0 |  0.29
Neigh   | 0          | 0          | 0          |   0.0 |  0.00
Comm    | 0.0033917  | 0.0033917  | 0.0033917  |   0.0 |  0.43
Output  | 0.046389   | 0.046389   | 0.046389   |   0.0 |  5.90
Modify  | 0.7277     | 0.7277     | 0.7277     |   0.0 | 92.53
Other   |            | 0.006667   |            |       |  0.85

Nlocal:              1 ave           1 max           1 min
Histogram: 1 0 0 0 0 0 0 0 0 0
Nghost:              0 ave           0 max           0 min
Histogram: 1 0 0 0 0 0 0 0 0 0
Neighs:              0 ave           0 max           0 min
Histogram: 1 0 0 0 0 0 0 0 0 0

Total # of neighbors = 0
Ave neighs/atom = 0
Neighbor list builds = 0
Dangerous builds = 0


Total wall time: 0:00:01
