LAMMPS (23 Jun 2022)
##################################################################
# LAMMPS input file generated using pylion 0.5.3
# simulation name: test
#
# pylion is written and maintained by Dimitris Trypogeorgos
# and Elliot Bentine. Download it from
# https://bitbucket.org/dtrypogeorgos/pylion
#
# If you find it useful please cite <paper>.
##################################################################



units si
atom_style charge

# Creating simulation box...
boundary m m m
region simulationDomain block -0.001  0.001 -0.001 0.001 -0.001 0.001 units box
create_box 2 simulationDomain
Created orthogonal box = (-0.001 -0.001 -0.001) to (0.001 0.001 0.001)
  1 by 1 by 1 MPI processor grid

# Configure neighbour list...
neighbor 1 nsq
neigh_modify once yes

# Configure pairwise interactions for long range Coulombics only...
pair_style coul/cut 10
pair_coeff * *

# Placing individual ions...


create_atoms 1 single 0.0002327458319663609 -0.00047815739801814296 0.00037937069660623577 units box
Created 1 atoms
  using box units in orthogonal box = (-0.001 -0.001 -0.001) to (0.001 0.001 0.001)
  create_atoms CPU = 0.000 seconds

create_atoms 1 single 0.00010758184262751877 -4.878918249944284e-05 -0.00019036059753930042 units box
Created 1 atoms
  using box units in orthogonal box = (-0.001 -0.001 -0.001) to (0.001 0.001 0.001)
  create_atoms CPU = 0.000 seconds

create_atoms 1 single -0.00014682649834522548 -8.651287412810978e-05 -7.101733570571568e-05 units box
Created 1 atoms
  using box units in orthogonal box = (-0.001 -0.001 -0.001) to (0.001 0.001 0.001)
  create_atoms CPU = 0.000 seconds

create_atoms 1 single -3.354195153817956e-05 1.6925012958611643e-05 0.00017989754324091985 units box
Created 1 atoms
  using box units in orthogonal box = (-0.001 -0.001 -0.001) to (0.001 0.001 0.001)
  create_atoms CPU = 0.000 seconds

create_atoms 1 single 0.00027387197164413155 0.0006991792659559572 -0.0006145915746737735 units box
Created 1 atoms
  using box units in orthogonal box = (-0.001 -0.001 -0.001) to (0.001 0.001 0.001)
  create_atoms CPU = 0.000 seconds

create_atoms 1 single 6.967760375400499e-05 -5.8029959374079456e-05 9.61783236620704e-05 units box
Created 1 atoms
  using box units in orthogonal box = (-0.001 -0.001 -0.001) to (0.001 0.001 0.001)
  create_atoms CPU = 0.000 seconds

create_atoms 1 single -3.237423382627967e-05 5.77125949378289e-05 0.0004597144415367511 units box
Created 1 atoms
  using box units in orthogonal box = (-0.001 -0.001 -0.001) to (0.001 0.001 0.001)
  create_atoms CPU = 0.000 seconds

create_atoms 1 single -0.00047873796124211837 6.0026703207692574e-05 0.00019444011759398773 units box
Created 1 atoms
  using box units in orthogonal box = (-0.001 -0.001 -0.001) to (0.001 0.001 0.001)
  create_atoms CPU = 0.000 seconds

create_atoms 1 single -8.057808541022752e-05 0.00022431294503177406 0.00024840878634659264 units box
Created 1 atoms
  using box units in orthogonal box = (-0.001 -0.001 -0.001) to (0.001 0.001 0.001)
  create_atoms CPU = 0.000 seconds

create_atoms 1 single 0.00013427810409230245 -0.000529881025473321 8.80320910351068e-05 units box
Created 1 atoms
  using box units in orthogonal box = (-0.001 -0.001 -0.001) to (0.001 0.001 0.001)
  create_atoms CPU = 0.000 seconds

create_atoms 1 single -3.7525386573660504e-06 5.400099237774031e-07 6.366587827084691e-05 units box
Created 1 atoms
  using box units in orthogonal box = (-0.001 -0.001 -0.001) to (0.001 0.001 0.001)
  create_atoms CPU = 0.000 seconds

create_atoms 1 single -5.3910839217330676e-05 -6.251281226854564e-05 -8.002117524643447e-05 units box
Created 1 atoms
  using box units in orthogonal box = (-0.001 -0.001 -0.001) to (0.001 0.001 0.001)
  create_atoms CPU = 0.000 seconds

create_atoms 1 single 0.0005698881100057011 0.000287148001198519 -0.00038503476248210076 units box
Created 1 atoms
  using box units in orthogonal box = (-0.001 -0.001 -0.001) to (0.001 0.001 0.001)
  create_atoms CPU = 0.000 seconds

create_atoms 1 single -2.045345754353735e-05 -1.1141704434506192e-05 6.225195311666136e-05 units box
Created 1 atoms
  using box units in orthogonal box = (-0.001 -0.001 -0.001) to (0.001 0.001 0.001)
  create_atoms CPU = 0.000 seconds

create_atoms 1 single 8.1387134358924e-05 7.912331628419773e-05 0.0005578035918015803 units box
Created 1 atoms
  using box units in orthogonal box = (-0.001 -0.001 -0.001) to (0.001 0.001 0.001)
  create_atoms CPU = 0.000 seconds

create_atoms 1 single 0.00016815109992575155 0.0001621399298386119 -0.00032308136492632263 units box
Created 1 atoms
  using box units in orthogonal box = (-0.001 -0.001 -0.001) to (0.001 0.001 0.001)
  create_atoms CPU = 0.000 seconds

create_atoms 1 single -3.747667243667515e-05 3.053932036965293e-05 -0.0003716571896481149 units box
Created 1 atoms
  using box units in orthogonal box = (-0.001 -0.001 -0.001) to (0.001 0.001 0.001)
  create_atoms CPU = 0.000 seconds

create_atoms 1 single -9.878859754202861e-05 -0.0001288365373036956 -0.00023246049962517422 units box
Created 1 atoms
  using box units in orthogonal box = (-0.001 -0.001 -0.001) to (0.001 0.001 0.001)
  create_atoms CPU = 0.000 seconds

create_atoms 1 single -8.665961743241747e-05 -0.00019935219628662907 -0.000250821820321847 units box
Created 1 atoms
  using box units in orthogonal box = (-0.001 -0.001 -0.001) to (0.001 0.001 0.001)
  create_atoms CPU = 0.000 seconds

create_atoms 1 single -0.0006401029391160534 -0.0002189088676492691 0.0003540431874906838 units box
Created 1 atoms
  using box units in orthogonal box = (-0.001 -0.001 -0.001) to (0.001 0.001 0.001)
  create_atoms CPU = 0.000 seconds


# Species...
mass 1 1.4944851e-26
set type 1 charge 1.6021764599999998e-19
Setting atom values ...
  20 settings made for charge
group 1 type 1
20 atoms in group 1



create_atoms 2 single -0.0005239625834489131 -0.00037269792954487967 -0.00010570163508895705 units box
Created 1 atoms
  using box units in orthogonal box = (-0.001 -0.001 -0.001) to (0.001 0.001 0.001)
  create_atoms CPU = 0.000 seconds

create_atoms 2 single -0.0005219018114308292 -8.547576063678578e-05 -0.00010051397925550412 units box
Created 1 atoms
  using box units in orthogonal box = (-0.001 -0.001 -0.001) to (0.001 0.001 0.001)
  create_atoms CPU = 0.000 seconds

create_atoms 2 single -0.000934032662563661 3.208336584383045e-08 0.0002863451760427694 units box
Created 1 atoms
  using box units in orthogonal box = (-0.001 -0.001 -0.001) to (0.001 0.001 0.001)
  create_atoms CPU = 0.000 seconds

create_atoms 2 single -0.00035066725497250755 0.0003600771239476097 0.00011146004333482062 units box
Created 1 atoms
  using box units in orthogonal box = (-0.001 -0.001 -0.001) to (0.001 0.001 0.001)
  create_atoms CPU = 0.000 seconds

create_atoms 2 single -1.5495204287474727e-07 -3.583402092587871e-07 2.9559582694951527e-05 units box
Created 1 atoms
  using box units in orthogonal box = (-0.001 -0.001 -0.001) to (0.001 0.001 0.001)
  create_atoms CPU = 0.000 seconds

create_atoms 2 single -8.432726364547515e-06 -6.655157430128998e-06 -1.4958963344885743e-05 units box
Created 1 atoms
  using box units in orthogonal box = (-0.001 -0.001 -0.001) to (0.001 0.001 0.001)
  create_atoms CPU = 0.000 seconds

create_atoms 2 single 0.0001637181075463755 0.0007875290319255432 3.444807123936134e-05 units box
Created 1 atoms
  using box units in orthogonal box = (-0.001 -0.001 -0.001) to (0.001 0.001 0.001)
  create_atoms CPU = 0.000 seconds

create_atoms 2 single -5.708078830345366e-05 0.0002159099063950671 -4.3701993974943864e-05 units box
Created 1 atoms
  using box units in orthogonal box = (-0.001 -0.001 -0.001) to (0.001 0.001 0.001)
  create_atoms CPU = 0.000 seconds

create_atoms 2 single -8.166239580186793e-06 -8.219797134782292e-05 -8.09635771347078e-05 units box
Created 1 atoms
  using box units in orthogonal box = (-0.001 -0.001 -0.001) to (0.001 0.001 0.001)
  create_atoms CPU = 0.000 seconds

create_atoms 2 single 0.0003252719371285399 0.0004604742610294766 0.0007893755577333264 units box
Created 1 atoms
  using box units in orthogonal box = (-0.001 -0.001 -0.001) to (0.001 0.001 0.001)
  create_atoms CPU = 0.000 seconds


# Species...
mass 2 5.3137248e-26
set type 2 charge 1.6021764599999998e-19
Setting atom values ...
  10 settings made for charge
group 2 type 2
10 atoms in group 2



# Configuring additional output to flush buffer during simulation...
thermo 10000
thermo_style custom step cpu
thermo_modify flush yes

# Time integration...

group nonRigidBody union all
30 atoms in group nonRigidBody

fix timeIntegrator nonRigidBody nve



dump 9911507659 all custom 10 /Users/michaelmitchell/qlicS/data/2024-07-15_12-54-12/positions.txt id x y z vx vy vz





# Pseudopotential approximation for Linear Paul trap... (fixID=9911793112)


# SHO

variable k_x9911793112		equal 1.773509e-12

variable k_y9911793112		equal 1.773509e-12

variable k_z9911793112		equal 1.548694e-13

variable fX9911793112 atom "-v_k_x9911793112 * x"

variable fY9911793112 atom "-v_k_y9911793112 * y"

variable fZ9911793112 atom "-v_k_z9911793112 * z"

variable E9911793112 atom "v_k_x9911793112 * x * x /         2 + v_k_y9911793112 * y * y / 2 + v_k_z9911793112 * z * z / 2"

fix 9911793112 1 addforce         v_fX9911793112 v_fY9911793112 v_fZ9911793112 energy v_E9911793112




variable coolx atom (9.269386030594033e-20+(2.703426035144626e-21*vx))*-0.5000000000000001
variable cooly atom (9.269386030594033e-20+2.703426035144626e-21*vy)*-0.5000000000000001
variable coolz atom (9.269386030594033e-20+2.703426035144626e-21*vz)*-0.7071067811865476
fix 569202603907002 1 addforce v_coolx v_cooly v_coolz



timestep 1e-08


# Run simulation

run 20000
Generated 0 of 1 mixed pair_coeff terms from geometric mixing rule
Neighbor list info ...
  update every 1 steps, delay 10 steps, check yes
  max neighbors/atom: 2000, page size: 100000
  master list distance cutoff = 11
  ghost atom cutoff = 11
  1 neighbor lists, perpetual/occasional/extra = 1 0 0
  (1) pair coul/cut, perpetual
      attributes: half, newton on
      pair build: half/nsq/newton
      stencil: none
      bin: none
WARNING: Proc sub-domain size < neighbor skin, could lead to lost atoms (src/domain.cpp:970)
Per MPI rank memory allocation (min/avg/max) = 5.282 | 5.282 | 5.282 Mbytes
   Step          CPU      
         0   0            
     10000   0.48495266   
     20000   0.97188837   
Loop time of 0.971907 on 1 procs for 20000 steps with 30 atoms

97.7% CPU use with 1 MPI tasks x no OpenMP threads

MPI task timing breakdown:
Section |  min time  |  avg time  |  max time  |%varavg| %total
---------------------------------------------------------------
Pair    | 0.10366    | 0.10366    | 0.10366    |   0.0 | 10.67
Neigh   | 0          | 0          | 0          |   0.0 |  0.00
Comm    | 0.0027698  | 0.0027698  | 0.0027698  |   0.0 |  0.28
Output  | 0.1277     | 0.1277     | 0.1277     |   0.0 | 13.14
Modify  | 0.73311    | 0.73311    | 0.73311    |   0.0 | 75.43
Other   |            | 0.004658   |            |       |  0.48

Nlocal:             30 ave          30 max          30 min
Histogram: 1 0 0 0 0 0 0 0 0 0
Nghost:              0 ave           0 max           0 min
Histogram: 1 0 0 0 0 0 0 0 0 0
Neighs:            435 ave         435 max         435 min
Histogram: 1 0 0 0 0 0 0 0 0 0

Total # of neighbors = 435
Ave neighs/atom = 14.5
Neighbor list builds = 0
Dangerous builds = 0





# Deleting a fix by uid

unfix 569202603907002




variable E equal 0
variable Ex atom (0.003*(319.039+-320779.0*(x-0)+163840000.0*(x-0)^2+3188.37*(y-0)+-158115000.0*(y-0)^2+-0.483258*(z-0)+16206.1*(z-0)^2))*cos((2*3.141592653589793)*0.005*step)
variable B equal 0
variable Ey atom (0.003*(-3.62944+3527.19*(x-0)+660075.0*(x-0)^2+320888.0*(y-0)+-1252000.0*(y-0)^2+1.91814*(z-0)+13573.5*(z-0)^2))*cos((2*3.141592653589793)*0.005*step)
variable C equal 0
variable Ez atom (0.003*(0.00111849+-0.582074*(x-0)+-789.5*(x-0)^2+2.08274*(y-0)+1408.33*(y-0)^2+-57.5482*(z-0)+153.512*(z-0)^2))*cos((2*3.141592653589793)*0.005*step)
fix 469202603907007 all efield v_Ex v_Ey v_Ez



timestep 1e-08


# Run simulation

run 1000
Generated 0 of 1 mixed pair_coeff terms from geometric mixing rule
WARNING: Proc sub-domain size < neighbor skin, could lead to lost atoms (src/domain.cpp:970)
Per MPI rank memory allocation (min/avg/max) = 5.282 | 5.282 | 5.282 Mbytes
   Step          CPU      
     20000   0            
     21000   0.12413056   
Loop time of 0.124148 on 1 procs for 1000 steps with 30 atoms

99.0% CPU use with 1 MPI tasks x no OpenMP threads

MPI task timing breakdown:
Section |  min time  |  avg time  |  max time  |%varavg| %total
---------------------------------------------------------------
Pair    | 0.0052398  | 0.0052398  | 0.0052398  |   0.0 |  4.22
Neigh   | 0          | 0          | 0          |   0.0 |  0.00
Comm    | 0.00013976 | 0.00013976 | 0.00013976 |   0.0 |  0.11
Output  | 0.0063386  | 0.0063386  | 0.0063386  |   0.0 |  5.11
Modify  | 0.11217    | 0.11217    | 0.11217    |   0.0 | 90.35
Other   |            | 0.0002565  |            |       |  0.21

Nlocal:             30 ave          30 max          30 min
Histogram: 1 0 0 0 0 0 0 0 0 0
Nghost:              0 ave           0 max           0 min
Histogram: 1 0 0 0 0 0 0 0 0 0
Neighs:            435 ave         435 max         435 min
Histogram: 1 0 0 0 0 0 0 0 0 0

Total # of neighbors = 435
Ave neighs/atom = 14.5
Neighbor list builds = 0
Dangerous builds = 0




timestep 1e-09


# Run simulation

run 1000
Generated 0 of 1 mixed pair_coeff terms from geometric mixing rule
WARNING: Proc sub-domain size < neighbor skin, could lead to lost atoms (src/domain.cpp:970)
Per MPI rank memory allocation (min/avg/max) = 5.282 | 5.282 | 5.282 Mbytes
   Step          CPU      
     21000   0            
     22000   0.12797314   
Loop time of 0.127995 on 1 procs for 1000 steps with 30 atoms

99.1% CPU use with 1 MPI tasks x no OpenMP threads

MPI task timing breakdown:
Section |  min time  |  avg time  |  max time  |%varavg| %total
---------------------------------------------------------------
Pair    | 0.0053157  | 0.0053157  | 0.0053157  |   0.0 |  4.15
Neigh   | 0          | 0          | 0          |   0.0 |  0.00
Comm    | 0.00014573 | 0.00014573 | 0.00014573 |   0.0 |  0.11
Output  | 0.0063987  | 0.0063987  | 0.0063987  |   0.0 |  5.00
Modify  | 0.11585    | 0.11585    | 0.11585    |   0.0 | 90.51
Other   |            | 0.0002809  |            |       |  0.22

Nlocal:             30 ave          30 max          30 min
Histogram: 1 0 0 0 0 0 0 0 0 0
Nghost:              0 ave           0 max           0 min
Histogram: 1 0 0 0 0 0 0 0 0 0
Neighs:            435 ave         435 max         435 min
Histogram: 1 0 0 0 0 0 0 0 0 0

Total # of neighbors = 435
Ave neighs/atom = 14.5
Neighbor list builds = 0
Dangerous builds = 0




variable coolx atom (9.269386030594033e-20+(2.703426035144626e-21*vx))*-0.5000000000000001
variable cooly atom (9.269386030594033e-20+2.703426035144626e-21*vy)*-0.5000000000000001
variable coolz atom (9.269386030594033e-20+2.703426035144626e-21*vz)*-0.7071067811865476
fix 569202603907003 1 addforce v_coolx v_cooly v_coolz



timestep 1e-08


# Run simulation

run 2000
Generated 0 of 1 mixed pair_coeff terms from geometric mixing rule
WARNING: Proc sub-domain size < neighbor skin, could lead to lost atoms (src/domain.cpp:970)
Per MPI rank memory allocation (min/avg/max) = 5.782 | 5.782 | 5.782 Mbytes
   Step          CPU      
     22000   0            
     24000   0.28104669   
Loop time of 0.281072 on 1 procs for 2000 steps with 30 atoms

98.9% CPU use with 1 MPI tasks x no OpenMP threads

MPI task timing breakdown:
Section |  min time  |  avg time  |  max time  |%varavg| %total
---------------------------------------------------------------
Pair    | 0.010495   | 0.010495   | 0.010495   |   0.0 |  3.73
Neigh   | 0          | 0          | 0          |   0.0 |  0.00
Comm    | 0.00033372 | 0.00033372 | 0.00033372 |   0.0 |  0.12
Output  | 0.013351   | 0.013351   | 0.013351   |   0.0 |  4.75
Modify  | 0.25635    | 0.25635    | 0.25635    |   0.0 | 91.20
Other   |            | 0.0005446  |            |       |  0.19

Nlocal:             30 ave          30 max          30 min
Histogram: 1 0 0 0 0 0 0 0 0 0
Nghost:              0 ave           0 max           0 min
Histogram: 1 0 0 0 0 0 0 0 0 0
Neighs:            435 ave         435 max         435 min
Histogram: 1 0 0 0 0 0 0 0 0 0

Total # of neighbors = 435
Ave neighs/atom = 14.5
Neighbor list builds = 0
Dangerous builds = 0





# Deleting a fix by uid

unfix 469202603907007





# Deleting a fix by uid

unfix 569202603907003




variable E equal 0
variable Ex atom (0.003*(319.039+-320779.0*(x-0)+163840000.0*(x-0)^2+3188.37*(y-0)+-158115000.0*(y-0)^2+-0.483258*(z-0)+16206.1*(z-0)^2))*cos((2*3.141592653589793)*0.006*step)
variable B equal 0
variable Ey atom (0.003*(-3.62944+3527.19*(x-0)+660075.0*(x-0)^2+320888.0*(y-0)+-1252000.0*(y-0)^2+1.91814*(z-0)+13573.5*(z-0)^2))*cos((2*3.141592653589793)*0.006*step)
variable C equal 0
variable Ez atom (0.003*(0.00111849+-0.582074*(x-0)+-789.5*(x-0)^2+2.08274*(y-0)+1408.33*(y-0)^2+-57.5482*(z-0)+153.512*(z-0)^2))*cos((2*3.141592653589793)*0.006*step)
fix 469202603907008 all efield v_Ex v_Ey v_Ez



timestep 1e-08


# Run simulation

run 1000
Generated 0 of 1 mixed pair_coeff terms from geometric mixing rule
WARNING: Proc sub-domain size < neighbor skin, could lead to lost atoms (src/domain.cpp:970)
Per MPI rank memory allocation (min/avg/max) = 5.282 | 5.282 | 5.282 Mbytes
   Step          CPU      
     24000   0            
     25000   0.12951661   
Loop time of 0.12961 on 1 procs for 1000 steps with 30 atoms

98.2% CPU use with 1 MPI tasks x no OpenMP threads

MPI task timing breakdown:
Section |  min time  |  avg time  |  max time  |%varavg| %total
---------------------------------------------------------------
Pair    | 0.0052949  | 0.0052949  | 0.0052949  |   0.0 |  4.09
Neigh   | 0          | 0          | 0          |   0.0 |  0.00
Comm    | 0.00016376 | 0.00016376 | 0.00016376 |   0.0 |  0.13
Output  | 0.0076607  | 0.0076607  | 0.0076607  |   0.0 |  5.91
Modify  | 0.11612    | 0.11612    | 0.11612    |   0.0 | 89.59
Other   |            | 0.0003672  |            |       |  0.28

Nlocal:             30 ave          30 max          30 min
Histogram: 1 0 0 0 0 0 0 0 0 0
Nghost:              0 ave           0 max           0 min
Histogram: 1 0 0 0 0 0 0 0 0 0
Neighs:            435 ave         435 max         435 min
Histogram: 1 0 0 0 0 0 0 0 0 0

Total # of neighbors = 435
Ave neighs/atom = 14.5
Neighbor list builds = 0
Dangerous builds = 0




timestep 1e-09


# Run simulation

run 1000
Generated 0 of 1 mixed pair_coeff terms from geometric mixing rule
WARNING: Proc sub-domain size < neighbor skin, could lead to lost atoms (src/domain.cpp:970)
Per MPI rank memory allocation (min/avg/max) = 5.282 | 5.282 | 5.282 Mbytes
   Step          CPU      
     25000   0            
     26000   0.12696918   
Loop time of 0.126992 on 1 procs for 1000 steps with 30 atoms

99.0% CPU use with 1 MPI tasks x no OpenMP threads

MPI task timing breakdown:
Section |  min time  |  avg time  |  max time  |%varavg| %total
---------------------------------------------------------------
Pair    | 0.005247   | 0.005247   | 0.005247   |   0.0 |  4.13
Neigh   | 0          | 0          | 0          |   0.0 |  0.00
Comm    | 0.00015903 | 0.00015903 | 0.00015903 |   0.0 |  0.13
Output  | 0.0069317  | 0.0069317  | 0.0069317  |   0.0 |  5.46
Modify  | 0.11432    | 0.11432    | 0.11432    |   0.0 | 90.02
Other   |            | 0.0003385  |            |       |  0.27

Nlocal:             30 ave          30 max          30 min
Histogram: 1 0 0 0 0 0 0 0 0 0
Nghost:              0 ave           0 max           0 min
Histogram: 1 0 0 0 0 0 0 0 0 0
Neighs:            435 ave         435 max         435 min
Histogram: 1 0 0 0 0 0 0 0 0 0

Total # of neighbors = 435
Ave neighs/atom = 14.5
Neighbor list builds = 0
Dangerous builds = 0




variable coolx atom (9.269386030594033e-20+(2.703426035144626e-21*vx))*-0.5000000000000001
variable cooly atom (9.269386030594033e-20+2.703426035144626e-21*vy)*-0.5000000000000001
variable coolz atom (9.269386030594033e-20+2.703426035144626e-21*vz)*-0.7071067811865476
fix 569202603907004 1 addforce v_coolx v_cooly v_coolz



timestep 1e-08


# Run simulation

run 2000
Generated 0 of 1 mixed pair_coeff terms from geometric mixing rule
WARNING: Proc sub-domain size < neighbor skin, could lead to lost atoms (src/domain.cpp:970)
Per MPI rank memory allocation (min/avg/max) = 5.782 | 5.782 | 5.782 Mbytes
   Step          CPU      
     26000   0            
     28000   0.29095072   
Loop time of 0.290973 on 1 procs for 2000 steps with 30 atoms

98.7% CPU use with 1 MPI tasks x no OpenMP threads

MPI task timing breakdown:
Section |  min time  |  avg time  |  max time  |%varavg| %total
---------------------------------------------------------------
Pair    | 0.0108     | 0.0108     | 0.0108     |   0.0 |  3.71
Neigh   | 0          | 0          | 0          |   0.0 |  0.00
Comm    | 0.00035114 | 0.00035114 | 0.00035114 |   0.0 |  0.12
Output  | 0.015099   | 0.015099   | 0.015099   |   0.0 |  5.19
Modify  | 0.26401    | 0.26401    | 0.26401    |   0.0 | 90.73
Other   |            | 0.0007083  |            |       |  0.24

Nlocal:             30 ave          30 max          30 min
Histogram: 1 0 0 0 0 0 0 0 0 0
Nghost:              0 ave           0 max           0 min
Histogram: 1 0 0 0 0 0 0 0 0 0
Neighs:            435 ave         435 max         435 min
Histogram: 1 0 0 0 0 0 0 0 0 0

Total # of neighbors = 435
Ave neighs/atom = 14.5
Neighbor list builds = 0
Dangerous builds = 0





# Deleting a fix by uid

unfix 469202603907008





# Deleting a fix by uid

unfix 569202603907004




variable E equal 0
variable Ex atom (0.003*(319.039+-320779.0*(x-0)+163840000.0*(x-0)^2+3188.37*(y-0)+-158115000.0*(y-0)^2+-0.483258*(z-0)+16206.1*(z-0)^2))*cos((2*3.141592653589793)*0.006500000000000001*step)
variable B equal 0
variable Ey atom (0.003*(-3.62944+3527.19*(x-0)+660075.0*(x-0)^2+320888.0*(y-0)+-1252000.0*(y-0)^2+1.91814*(z-0)+13573.5*(z-0)^2))*cos((2*3.141592653589793)*0.006500000000000001*step)
variable C equal 0
variable Ez atom (0.003*(0.00111849+-0.582074*(x-0)+-789.5*(x-0)^2+2.08274*(y-0)+1408.33*(y-0)^2+-57.5482*(z-0)+153.512*(z-0)^2))*cos((2*3.141592653589793)*0.006500000000000001*step)
fix 469202603907009 all efield v_Ex v_Ey v_Ez



timestep 1e-08


# Run simulation

run 1000
Generated 0 of 1 mixed pair_coeff terms from geometric mixing rule
WARNING: Proc sub-domain size < neighbor skin, could lead to lost atoms (src/domain.cpp:970)
Per MPI rank memory allocation (min/avg/max) = 5.282 | 5.282 | 5.282 Mbytes
   Step          CPU      
     28000   0            
     29000   0.1303796    
Loop time of 0.130399 on 1 procs for 1000 steps with 30 atoms

99.0% CPU use with 1 MPI tasks x no OpenMP threads

MPI task timing breakdown:
Section |  min time  |  avg time  |  max time  |%varavg| %total
---------------------------------------------------------------
Pair    | 0.0052661  | 0.0052661  | 0.0052661  |   0.0 |  4.04
Neigh   | 0          | 0          | 0          |   0.0 |  0.00
Comm    | 0.0001603  | 0.0001603  | 0.0001603  |   0.0 |  0.12
Output  | 0.0070092  | 0.0070092  | 0.0070092  |   0.0 |  5.38
Modify  | 0.11762    | 0.11762    | 0.11762    |   0.0 | 90.20
Other   |            | 0.000344   |            |       |  0.26

Nlocal:             30 ave          30 max          30 min
Histogram: 1 0 0 0 0 0 0 0 0 0
Nghost:              0 ave           0 max           0 min
Histogram: 1 0 0 0 0 0 0 0 0 0
Neighs:            435 ave         435 max         435 min
Histogram: 1 0 0 0 0 0 0 0 0 0

Total # of neighbors = 435
Ave neighs/atom = 14.5
Neighbor list builds = 0
Dangerous builds = 0




timestep 1e-09


# Run simulation

run 1000
Generated 0 of 1 mixed pair_coeff terms from geometric mixing rule
WARNING: Proc sub-domain size < neighbor skin, could lead to lost atoms (src/domain.cpp:970)
Per MPI rank memory allocation (min/avg/max) = 5.282 | 5.282 | 5.282 Mbytes
   Step          CPU      
     29000   0            
     30000   0.1307769    
Loop time of 0.130801 on 1 procs for 1000 steps with 30 atoms

98.7% CPU use with 1 MPI tasks x no OpenMP threads

MPI task timing breakdown:
Section |  min time  |  avg time  |  max time  |%varavg| %total
---------------------------------------------------------------
Pair    | 0.0052893  | 0.0052893  | 0.0052893  |   0.0 |  4.04
Neigh   | 0          | 0          | 0          |   0.0 |  0.00
Comm    | 0.00016415 | 0.00016415 | 0.00016415 |   0.0 |  0.13
Output  | 0.0070833  | 0.0070833  | 0.0070833  |   0.0 |  5.42
Modify  | 0.11791    | 0.11791    | 0.11791    |   0.0 | 90.15
Other   |            | 0.0003527  |            |       |  0.27

Nlocal:             30 ave          30 max          30 min
Histogram: 1 0 0 0 0 0 0 0 0 0
Nghost:              0 ave           0 max           0 min
Histogram: 1 0 0 0 0 0 0 0 0 0
Neighs:            435 ave         435 max         435 min
Histogram: 1 0 0 0 0 0 0 0 0 0

Total # of neighbors = 435
Ave neighs/atom = 14.5
Neighbor list builds = 0
Dangerous builds = 0




variable coolx atom (9.269386030594033e-20+(2.703426035144626e-21*vx))*-0.5000000000000001
variable cooly atom (9.269386030594033e-20+2.703426035144626e-21*vy)*-0.5000000000000001
variable coolz atom (9.269386030594033e-20+2.703426035144626e-21*vz)*-0.7071067811865476
fix 569202603907005 1 addforce v_coolx v_cooly v_coolz



timestep 1e-08


# Run simulation

run 2000
Generated 0 of 1 mixed pair_coeff terms from geometric mixing rule
WARNING: Proc sub-domain size < neighbor skin, could lead to lost atoms (src/domain.cpp:970)
Per MPI rank memory allocation (min/avg/max) = 5.782 | 5.782 | 5.782 Mbytes
   Step          CPU      
     30000   0            
     32000   0.27886973   
Loop time of 0.278888 on 1 procs for 2000 steps with 30 atoms

99.5% CPU use with 1 MPI tasks x no OpenMP threads

MPI task timing breakdown:
Section |  min time  |  avg time  |  max time  |%varavg| %total
---------------------------------------------------------------
Pair    | 0.010352   | 0.010352   | 0.010352   |   0.0 |  3.71
Neigh   | 0          | 0          | 0          |   0.0 |  0.00
Comm    | 0.00027986 | 0.00027986 | 0.00027986 |   0.0 |  0.10
Output  | 0.012127   | 0.012127   | 0.012127   |   0.0 |  4.35
Modify  | 0.25565    | 0.25565    | 0.25565    |   0.0 | 91.67
Other   |            | 0.0004825  |            |       |  0.17

Nlocal:             30 ave          30 max          30 min
Histogram: 1 0 0 0 0 0 0 0 0 0
Nghost:              0 ave           0 max           0 min
Histogram: 1 0 0 0 0 0 0 0 0 0
Neighs:            435 ave         435 max         435 min
Histogram: 1 0 0 0 0 0 0 0 0 0

Total # of neighbors = 435
Ave neighs/atom = 14.5
Neighbor list builds = 0
Dangerous builds = 0





# Deleting a fix by uid

unfix 469202603907009





# Deleting a fix by uid

unfix 569202603907005




variable E equal 0
variable Ex atom (0.003*(319.039+-320779.0*(x-0)+163840000.0*(x-0)^2+3188.37*(y-0)+-158115000.0*(y-0)^2+-0.483258*(z-0)+16206.1*(z-0)^2))*cos((2*3.141592653589793)*0.007*step)
variable B equal 0
variable Ey atom (0.003*(-3.62944+3527.19*(x-0)+660075.0*(x-0)^2+320888.0*(y-0)+-1252000.0*(y-0)^2+1.91814*(z-0)+13573.5*(z-0)^2))*cos((2*3.141592653589793)*0.007*step)
variable C equal 0
variable Ez atom (0.003*(0.00111849+-0.582074*(x-0)+-789.5*(x-0)^2+2.08274*(y-0)+1408.33*(y-0)^2+-57.5482*(z-0)+153.512*(z-0)^2))*cos((2*3.141592653589793)*0.007*step)
fix 469202603907010 all efield v_Ex v_Ey v_Ez



timestep 1e-08


# Run simulation

run 1000
Generated 0 of 1 mixed pair_coeff terms from geometric mixing rule
WARNING: Proc sub-domain size < neighbor skin, could lead to lost atoms (src/domain.cpp:970)
Per MPI rank memory allocation (min/avg/max) = 5.282 | 5.282 | 5.282 Mbytes
   Step          CPU      
     32000   0            
     33000   0.12338595   
Loop time of 0.123404 on 1 procs for 1000 steps with 30 atoms

99.4% CPU use with 1 MPI tasks x no OpenMP threads

MPI task timing breakdown:
Section |  min time  |  avg time  |  max time  |%varavg| %total
---------------------------------------------------------------
Pair    | 0.0051625  | 0.0051625  | 0.0051625  |   0.0 |  4.18
Neigh   | 0          | 0          | 0          |   0.0 |  0.00
Comm    | 0.00013837 | 0.00013837 | 0.00013837 |   0.0 |  0.11
Output  | 0.0062409  | 0.0062409  | 0.0062409  |   0.0 |  5.06
Modify  | 0.11161    | 0.11161    | 0.11161    |   0.0 | 90.44
Other   |            | 0.0002563  |            |       |  0.21

Nlocal:             30 ave          30 max          30 min
Histogram: 1 0 0 0 0 0 0 0 0 0
Nghost:              0 ave           0 max           0 min
Histogram: 1 0 0 0 0 0 0 0 0 0
Neighs:            435 ave         435 max         435 min
Histogram: 1 0 0 0 0 0 0 0 0 0

Total # of neighbors = 435
Ave neighs/atom = 14.5
Neighbor list builds = 0
Dangerous builds = 0




timestep 1e-09


# Run simulation

run 1000
Generated 0 of 1 mixed pair_coeff terms from geometric mixing rule
WARNING: Proc sub-domain size < neighbor skin, could lead to lost atoms (src/domain.cpp:970)
Per MPI rank memory allocation (min/avg/max) = 5.282 | 5.282 | 5.282 Mbytes
   Step          CPU      
     33000   0            
     34000   0.12440329   
Loop time of 0.124421 on 1 procs for 1000 steps with 30 atoms

99.3% CPU use with 1 MPI tasks x no OpenMP threads

MPI task timing breakdown:
Section |  min time  |  avg time  |  max time  |%varavg| %total
---------------------------------------------------------------
Pair    | 0.0051568  | 0.0051568  | 0.0051568  |   0.0 |  4.14
Neigh   | 0          | 0          | 0          |   0.0 |  0.00
Comm    | 0.00013904 | 0.00013904 | 0.00013904 |   0.0 |  0.11
Output  | 0.0060921  | 0.0060921  | 0.0060921  |   0.0 |  4.90
Modify  | 0.11278    | 0.11278    | 0.11278    |   0.0 | 90.65
Other   |            | 0.0002501  |            |       |  0.20

Nlocal:             30 ave          30 max          30 min
Histogram: 1 0 0 0 0 0 0 0 0 0
Nghost:              0 ave           0 max           0 min
Histogram: 1 0 0 0 0 0 0 0 0 0
Neighs:            435 ave         435 max         435 min
Histogram: 1 0 0 0 0 0 0 0 0 0

Total # of neighbors = 435
Ave neighs/atom = 14.5
Neighbor list builds = 0
Dangerous builds = 0




variable coolx atom (9.269386030594033e-20+(2.703426035144626e-21*vx))*-0.5000000000000001
variable cooly atom (9.269386030594033e-20+2.703426035144626e-21*vy)*-0.5000000000000001
variable coolz atom (9.269386030594033e-20+2.703426035144626e-21*vz)*-0.7071067811865476
fix 569202603907006 1 addforce v_coolx v_cooly v_coolz



timestep 1e-08


# Run simulation

run 2000
Generated 0 of 1 mixed pair_coeff terms from geometric mixing rule
WARNING: Proc sub-domain size < neighbor skin, could lead to lost atoms (src/domain.cpp:970)
Per MPI rank memory allocation (min/avg/max) = 5.782 | 5.782 | 5.782 Mbytes
   Step          CPU      
     34000   0            
     36000   0.27695565   
Loop time of 0.276975 on 1 procs for 2000 steps with 30 atoms

99.2% CPU use with 1 MPI tasks x no OpenMP threads

MPI task timing breakdown:
Section |  min time  |  avg time  |  max time  |%varavg| %total
---------------------------------------------------------------
Pair    | 0.010419   | 0.010419   | 0.010419   |   0.0 |  3.76
Neigh   | 0          | 0          | 0          |   0.0 |  0.00
Comm    | 0.00028542 | 0.00028542 | 0.00028542 |   0.0 |  0.10
Output  | 0.012428   | 0.012428   | 0.012428   |   0.0 |  4.49
Modify  | 0.25334    | 0.25334    | 0.25334    |   0.0 | 91.47
Other   |            | 0.0005078  |            |       |  0.18

Nlocal:             30 ave          30 max          30 min
Histogram: 1 0 0 0 0 0 0 0 0 0
Nghost:              0 ave           0 max           0 min
Histogram: 1 0 0 0 0 0 0 0 0 0
Neighs:            435 ave         435 max         435 min
Histogram: 1 0 0 0 0 0 0 0 0 0

Total # of neighbors = 435
Ave neighs/atom = 14.5
Neighbor list builds = 0
Dangerous builds = 0





# Deleting a fix by uid

unfix 469202603907010





# Deleting a fix by uid

unfix 569202603907006




variable E equal 0
variable Ex atom (0.003*(319.039+-320779.0*(x-0)+163840000.0*(x-0)^2+3188.37*(y-0)+-158115000.0*(y-0)^2+-0.483258*(z-0)+16206.1*(z-0)^2))*cos((2*3.141592653589793)*0.0071*step)
variable B equal 0
variable Ey atom (0.003*(-3.62944+3527.19*(x-0)+660075.0*(x-0)^2+320888.0*(y-0)+-1252000.0*(y-0)^2+1.91814*(z-0)+13573.5*(z-0)^2))*cos((2*3.141592653589793)*0.0071*step)
variable C equal 0
variable Ez atom (0.003*(0.00111849+-0.582074*(x-0)+-789.5*(x-0)^2+2.08274*(y-0)+1408.33*(y-0)^2+-57.5482*(z-0)+153.512*(z-0)^2))*cos((2*3.141592653589793)*0.0071*step)
fix 469202603907011 all efield v_Ex v_Ey v_Ez



timestep 1e-08


# Run simulation

run 1000
Generated 0 of 1 mixed pair_coeff terms from geometric mixing rule
WARNING: Proc sub-domain size < neighbor skin, could lead to lost atoms (src/domain.cpp:970)
Per MPI rank memory allocation (min/avg/max) = 5.282 | 5.282 | 5.282 Mbytes
   Step          CPU      
     36000   0            
     37000   0.12562515   
Loop time of 0.125642 on 1 procs for 1000 steps with 30 atoms

98.9% CPU use with 1 MPI tasks x no OpenMP threads

MPI task timing breakdown:
Section |  min time  |  avg time  |  max time  |%varavg| %total
---------------------------------------------------------------
Pair    | 0.0052346  | 0.0052346  | 0.0052346  |   0.0 |  4.17
Neigh   | 0          | 0          | 0          |   0.0 |  0.00
Comm    | 0.00014152 | 0.00014152 | 0.00014152 |   0.0 |  0.11
Output  | 0.0062102  | 0.0062102  | 0.0062102  |   0.0 |  4.94
Modify  | 0.1138     | 0.1138     | 0.1138     |   0.0 | 90.57
Other   |            | 0.0002553  |            |       |  0.20

Nlocal:             30 ave          30 max          30 min
Histogram: 1 0 0 0 0 0 0 0 0 0
Nghost:              0 ave           0 max           0 min
Histogram: 1 0 0 0 0 0 0 0 0 0
Neighs:            435 ave         435 max         435 min
Histogram: 1 0 0 0 0 0 0 0 0 0

Total # of neighbors = 435
Ave neighs/atom = 14.5
Neighbor list builds = 0
Dangerous builds = 0




timestep 1e-09


# Run simulation

run 1000
Generated 0 of 1 mixed pair_coeff terms from geometric mixing rule
WARNING: Proc sub-domain size < neighbor skin, could lead to lost atoms (src/domain.cpp:970)
Per MPI rank memory allocation (min/avg/max) = 5.282 | 5.282 | 5.282 Mbytes
   Step          CPU      
     37000   0            
     38000   0.12514154   
Loop time of 0.12516 on 1 procs for 1000 steps with 30 atoms

98.0% CPU use with 1 MPI tasks x no OpenMP threads

MPI task timing breakdown:
Section |  min time  |  avg time  |  max time  |%varavg| %total
---------------------------------------------------------------
Pair    | 0.005165   | 0.005165   | 0.005165   |   0.0 |  4.13
Neigh   | 0          | 0          | 0          |   0.0 |  0.00
Comm    | 0.00013771 | 0.00013771 | 0.00013771 |   0.0 |  0.11
Output  | 0.0076865  | 0.0076865  | 0.0076865  |   0.0 |  6.14
Modify  | 0.11193    | 0.11193    | 0.11193    |   0.0 | 89.43
Other   |            | 0.0002402  |            |       |  0.19

Nlocal:             30 ave          30 max          30 min
Histogram: 1 0 0 0 0 0 0 0 0 0
Nghost:              0 ave           0 max           0 min
Histogram: 1 0 0 0 0 0 0 0 0 0
Neighs:            435 ave         435 max         435 min
Histogram: 1 0 0 0 0 0 0 0 0 0

Total # of neighbors = 435
Ave neighs/atom = 14.5
Neighbor list builds = 0
Dangerous builds = 0




variable coolx atom (9.269386030594033e-20+(2.703426035144626e-21*vx))*-0.5000000000000001
variable cooly atom (9.269386030594033e-20+2.703426035144626e-21*vy)*-0.5000000000000001
variable coolz atom (9.269386030594033e-20+2.703426035144626e-21*vz)*-0.7071067811865476
fix 569202603907007 1 addforce v_coolx v_cooly v_coolz



timestep 1e-08


# Run simulation

run 2000
Generated 0 of 1 mixed pair_coeff terms from geometric mixing rule
WARNING: Proc sub-domain size < neighbor skin, could lead to lost atoms (src/domain.cpp:970)
Per MPI rank memory allocation (min/avg/max) = 5.782 | 5.782 | 5.782 Mbytes
   Step          CPU      
     38000   0            
     40000   0.28109724   
Loop time of 0.281117 on 1 procs for 2000 steps with 30 atoms

99.2% CPU use with 1 MPI tasks x no OpenMP threads

MPI task timing breakdown:
Section |  min time  |  avg time  |  max time  |%varavg| %total
---------------------------------------------------------------
Pair    | 0.010416   | 0.010416   | 0.010416   |   0.0 |  3.71
Neigh   | 0          | 0          | 0          |   0.0 |  0.00
Comm    | 0.00028334 | 0.00028334 | 0.00028334 |   0.0 |  0.10
Output  | 0.01267    | 0.01267    | 0.01267    |   0.0 |  4.51
Modify  | 0.25719    | 0.25719    | 0.25719    |   0.0 | 91.49
Other   |            | 0.0005533  |            |       |  0.20

Nlocal:             30 ave          30 max          30 min
Histogram: 1 0 0 0 0 0 0 0 0 0
Nghost:              0 ave           0 max           0 min
Histogram: 1 0 0 0 0 0 0 0 0 0
Neighs:            435 ave         435 max         435 min
Histogram: 1 0 0 0 0 0 0 0 0 0

Total # of neighbors = 435
Ave neighs/atom = 14.5
Neighbor list builds = 0
Dangerous builds = 0





# Deleting a fix by uid

unfix 469202603907011





# Deleting a fix by uid

unfix 569202603907007




variable E equal 0
variable Ex atom (0.003*(319.039+-320779.0*(x-0)+163840000.0*(x-0)^2+3188.37*(y-0)+-158115000.0*(y-0)^2+-0.483258*(z-0)+16206.1*(z-0)^2))*cos((2*3.141592653589793)*0.00715*step)
variable B equal 0
variable Ey atom (0.003*(-3.62944+3527.19*(x-0)+660075.0*(x-0)^2+320888.0*(y-0)+-1252000.0*(y-0)^2+1.91814*(z-0)+13573.5*(z-0)^2))*cos((2*3.141592653589793)*0.00715*step)
variable C equal 0
variable Ez atom (0.003*(0.00111849+-0.582074*(x-0)+-789.5*(x-0)^2+2.08274*(y-0)+1408.33*(y-0)^2+-57.5482*(z-0)+153.512*(z-0)^2))*cos((2*3.141592653589793)*0.00715*step)
fix 469202603907012 all efield v_Ex v_Ey v_Ez



timestep 1e-08


# Run simulation

run 1000
Generated 0 of 1 mixed pair_coeff terms from geometric mixing rule
WARNING: Proc sub-domain size < neighbor skin, could lead to lost atoms (src/domain.cpp:970)
Per MPI rank memory allocation (min/avg/max) = 5.282 | 5.282 | 5.282 Mbytes
   Step          CPU      
     40000   0            
     41000   0.12424859   
Loop time of 0.124267 on 1 procs for 1000 steps with 30 atoms

99.2% CPU use with 1 MPI tasks x no OpenMP threads

MPI task timing breakdown:
Section |  min time  |  avg time  |  max time  |%varavg| %total
---------------------------------------------------------------
Pair    | 0.0051864  | 0.0051864  | 0.0051864  |   0.0 |  4.17
Neigh   | 0          | 0          | 0          |   0.0 |  0.00
Comm    | 0.00013877 | 0.00013877 | 0.00013877 |   0.0 |  0.11
Output  | 0.0060121  | 0.0060121  | 0.0060121  |   0.0 |  4.84
Modify  | 0.11269    | 0.11269    | 0.11269    |   0.0 | 90.68
Other   |            | 0.0002417  |            |       |  0.19

Nlocal:             30 ave          30 max          30 min
Histogram: 1 0 0 0 0 0 0 0 0 0
Nghost:              0 ave           0 max           0 min
Histogram: 1 0 0 0 0 0 0 0 0 0
Neighs:            435 ave         435 max         435 min
Histogram: 1 0 0 0 0 0 0 0 0 0

Total # of neighbors = 435
Ave neighs/atom = 14.5
Neighbor list builds = 0
Dangerous builds = 0




timestep 1e-09


# Run simulation

run 1000
Generated 0 of 1 mixed pair_coeff terms from geometric mixing rule
WARNING: Proc sub-domain size < neighbor skin, could lead to lost atoms (src/domain.cpp:970)
Per MPI rank memory allocation (min/avg/max) = 5.282 | 5.282 | 5.282 Mbytes
   Step          CPU      
     41000   0            
     42000   0.12238836   
Loop time of 0.122407 on 1 procs for 1000 steps with 30 atoms

99.4% CPU use with 1 MPI tasks x no OpenMP threads

MPI task timing breakdown:
Section |  min time  |  avg time  |  max time  |%varavg| %total
---------------------------------------------------------------
Pair    | 0.0051552  | 0.0051552  | 0.0051552  |   0.0 |  4.21
Neigh   | 0          | 0          | 0          |   0.0 |  0.00
Comm    | 0.00013914 | 0.00013914 | 0.00013914 |   0.0 |  0.11
Output  | 0.0059794  | 0.0059794  | 0.0059794  |   0.0 |  4.88
Modify  | 0.11087    | 0.11087    | 0.11087    |   0.0 | 90.58
Other   |            | 0.0002599  |            |       |  0.21

Nlocal:             30 ave          30 max          30 min
Histogram: 1 0 0 0 0 0 0 0 0 0
Nghost:              0 ave           0 max           0 min
Histogram: 1 0 0 0 0 0 0 0 0 0
Neighs:            435 ave         435 max         435 min
Histogram: 1 0 0 0 0 0 0 0 0 0

Total # of neighbors = 435
Ave neighs/atom = 14.5
Neighbor list builds = 0
Dangerous builds = 0




variable coolx atom (9.269386030594033e-20+(2.703426035144626e-21*vx))*-0.5000000000000001
variable cooly atom (9.269386030594033e-20+2.703426035144626e-21*vy)*-0.5000000000000001
variable coolz atom (9.269386030594033e-20+2.703426035144626e-21*vz)*-0.7071067811865476
fix 569202603907008 1 addforce v_coolx v_cooly v_coolz



timestep 1e-08


# Run simulation

run 2000
Generated 0 of 1 mixed pair_coeff terms from geometric mixing rule
WARNING: Proc sub-domain size < neighbor skin, could lead to lost atoms (src/domain.cpp:970)
Per MPI rank memory allocation (min/avg/max) = 5.782 | 5.782 | 5.782 Mbytes
   Step          CPU      
     42000   0            
     44000   0.27798314   
Loop time of 0.278002 on 1 procs for 2000 steps with 30 atoms

99.1% CPU use with 1 MPI tasks x no OpenMP threads

MPI task timing breakdown:
Section |  min time  |  avg time  |  max time  |%varavg| %total
---------------------------------------------------------------
Pair    | 0.010365   | 0.010365   | 0.010365   |   0.0 |  3.73
Neigh   | 0          | 0          | 0          |   0.0 |  0.00
Comm    | 0.00028212 | 0.00028212 | 0.00028212 |   0.0 |  0.10
Output  | 0.012478   | 0.012478   | 0.012478   |   0.0 |  4.49
Modify  | 0.25437    | 0.25437    | 0.25437    |   0.0 | 91.50
Other   |            | 0.0005013  |            |       |  0.18

Nlocal:             30 ave          30 max          30 min
Histogram: 1 0 0 0 0 0 0 0 0 0
Nghost:              0 ave           0 max           0 min
Histogram: 1 0 0 0 0 0 0 0 0 0
Neighs:            435 ave         435 max         435 min
Histogram: 1 0 0 0 0 0 0 0 0 0

Total # of neighbors = 435
Ave neighs/atom = 14.5
Neighbor list builds = 0
Dangerous builds = 0





# Deleting a fix by uid

unfix 469202603907012





# Deleting a fix by uid

unfix 569202603907008




variable E equal 0
variable Ex atom (0.003*(319.039+-320779.0*(x-0)+163840000.0*(x-0)^2+3188.37*(y-0)+-158115000.0*(y-0)^2+-0.483258*(z-0)+16206.1*(z-0)^2))*cos((2*3.141592653589793)*0.0072*step)
variable B equal 0
variable Ey atom (0.003*(-3.62944+3527.19*(x-0)+660075.0*(x-0)^2+320888.0*(y-0)+-1252000.0*(y-0)^2+1.91814*(z-0)+13573.5*(z-0)^2))*cos((2*3.141592653589793)*0.0072*step)
variable C equal 0
variable Ez atom (0.003*(0.00111849+-0.582074*(x-0)+-789.5*(x-0)^2+2.08274*(y-0)+1408.33*(y-0)^2+-57.5482*(z-0)+153.512*(z-0)^2))*cos((2*3.141592653589793)*0.0072*step)
fix 469202603907013 all efield v_Ex v_Ey v_Ez



timestep 1e-08


# Run simulation

run 1000
Generated 0 of 1 mixed pair_coeff terms from geometric mixing rule
WARNING: Proc sub-domain size < neighbor skin, could lead to lost atoms (src/domain.cpp:970)
Per MPI rank memory allocation (min/avg/max) = 5.282 | 5.282 | 5.282 Mbytes
   Step          CPU      
     44000   0            
     45000   0.12220483   
Loop time of 0.122223 on 1 procs for 1000 steps with 30 atoms

99.5% CPU use with 1 MPI tasks x no OpenMP threads

MPI task timing breakdown:
Section |  min time  |  avg time  |  max time  |%varavg| %total
---------------------------------------------------------------
Pair    | 0.0051435  | 0.0051435  | 0.0051435  |   0.0 |  4.21
Neigh   | 0          | 0          | 0          |   0.0 |  0.00
Comm    | 0.00013776 | 0.00013776 | 0.00013776 |   0.0 |  0.11
Output  | 0.0059678  | 0.0059678  | 0.0059678  |   0.0 |  4.88
Modify  | 0.11073    | 0.11073    | 0.11073    |   0.0 | 90.60
Other   |            | 0.0002434  |            |       |  0.20

Nlocal:             30 ave          30 max          30 min
Histogram: 1 0 0 0 0 0 0 0 0 0
Nghost:              0 ave           0 max           0 min
Histogram: 1 0 0 0 0 0 0 0 0 0
Neighs:            435 ave         435 max         435 min
Histogram: 1 0 0 0 0 0 0 0 0 0

Total # of neighbors = 435
Ave neighs/atom = 14.5
Neighbor list builds = 0
Dangerous builds = 0




timestep 1e-09


# Run simulation

run 1000
Generated 0 of 1 mixed pair_coeff terms from geometric mixing rule
WARNING: Proc sub-domain size < neighbor skin, could lead to lost atoms (src/domain.cpp:970)
Per MPI rank memory allocation (min/avg/max) = 5.282 | 5.282 | 5.282 Mbytes
   Step          CPU      
     45000   0            
     46000   0.12211494   
Loop time of 0.122131 on 1 procs for 1000 steps with 30 atoms

99.5% CPU use with 1 MPI tasks x no OpenMP threads

MPI task timing breakdown:
Section |  min time  |  avg time  |  max time  |%varavg| %total
---------------------------------------------------------------
Pair    | 0.005141   | 0.005141   | 0.005141   |   0.0 |  4.21
Neigh   | 0          | 0          | 0          |   0.0 |  0.00
Comm    | 0.00013628 | 0.00013628 | 0.00013628 |   0.0 |  0.11
Output  | 0.0058607  | 0.0058607  | 0.0058607  |   0.0 |  4.80
Modify  | 0.11075    | 0.11075    | 0.11075    |   0.0 | 90.68
Other   |            | 0.0002437  |            |       |  0.20

Nlocal:             30 ave          30 max          30 min
Histogram: 1 0 0 0 0 0 0 0 0 0
Nghost:              0 ave           0 max           0 min
Histogram: 1 0 0 0 0 0 0 0 0 0
Neighs:            435 ave         435 max         435 min
Histogram: 1 0 0 0 0 0 0 0 0 0

Total # of neighbors = 435
Ave neighs/atom = 14.5
Neighbor list builds = 0
Dangerous builds = 0




variable coolx atom (9.269386030594033e-20+(2.703426035144626e-21*vx))*-0.5000000000000001
variable cooly atom (9.269386030594033e-20+2.703426035144626e-21*vy)*-0.5000000000000001
variable coolz atom (9.269386030594033e-20+2.703426035144626e-21*vz)*-0.7071067811865476
fix 569202603907009 1 addforce v_coolx v_cooly v_coolz



timestep 1e-08


# Run simulation

run 2000
Generated 0 of 1 mixed pair_coeff terms from geometric mixing rule
WARNING: Proc sub-domain size < neighbor skin, could lead to lost atoms (src/domain.cpp:970)
Per MPI rank memory allocation (min/avg/max) = 5.782 | 5.782 | 5.782 Mbytes
   Step          CPU      
     46000   0            
     48000   0.27402477   
Loop time of 0.274042 on 1 procs for 2000 steps with 30 atoms

99.4% CPU use with 1 MPI tasks x no OpenMP threads

MPI task timing breakdown:
Section |  min time  |  avg time  |  max time  |%varavg| %total
---------------------------------------------------------------
Pair    | 0.010325   | 0.010325   | 0.010325   |   0.0 |  3.77
Neigh   | 0          | 0          | 0          |   0.0 |  0.00
Comm    | 0.00028    | 0.00028    | 0.00028    |   0.0 |  0.10
Output  | 0.012067   | 0.012067   | 0.012067   |   0.0 |  4.40
Modify  | 0.25089    | 0.25089    | 0.25089    |   0.0 | 91.55
Other   |            | 0.0004774  |            |       |  0.17

Nlocal:             30 ave          30 max          30 min
Histogram: 1 0 0 0 0 0 0 0 0 0
Nghost:              0 ave           0 max           0 min
Histogram: 1 0 0 0 0 0 0 0 0 0
Neighs:            435 ave         435 max         435 min
Histogram: 1 0 0 0 0 0 0 0 0 0

Total # of neighbors = 435
Ave neighs/atom = 14.5
Neighbor list builds = 0
Dangerous builds = 0





# Deleting a fix by uid

unfix 469202603907013





# Deleting a fix by uid

unfix 569202603907009




variable E equal 0
variable Ex atom (0.003*(319.039+-320779.0*(x-0)+163840000.0*(x-0)^2+3188.37*(y-0)+-158115000.0*(y-0)^2+-0.483258*(z-0)+16206.1*(z-0)^2))*cos((2*3.141592653589793)*0.00725*step)
variable B equal 0
variable Ey atom (0.003*(-3.62944+3527.19*(x-0)+660075.0*(x-0)^2+320888.0*(y-0)+-1252000.0*(y-0)^2+1.91814*(z-0)+13573.5*(z-0)^2))*cos((2*3.141592653589793)*0.00725*step)
variable C equal 0
variable Ez atom (0.003*(0.00111849+-0.582074*(x-0)+-789.5*(x-0)^2+2.08274*(y-0)+1408.33*(y-0)^2+-57.5482*(z-0)+153.512*(z-0)^2))*cos((2*3.141592653589793)*0.00725*step)
fix 469202603907014 all efield v_Ex v_Ey v_Ez



timestep 1e-08


# Run simulation

run 1000
Generated 0 of 1 mixed pair_coeff terms from geometric mixing rule
WARNING: Proc sub-domain size < neighbor skin, could lead to lost atoms (src/domain.cpp:970)
Per MPI rank memory allocation (min/avg/max) = 5.282 | 5.282 | 5.282 Mbytes
   Step          CPU      
     48000   0            
     49000   0.12330854   
Loop time of 0.123327 on 1 procs for 1000 steps with 30 atoms

99.5% CPU use with 1 MPI tasks x no OpenMP threads

MPI task timing breakdown:
Section |  min time  |  avg time  |  max time  |%varavg| %total
---------------------------------------------------------------
Pair    | 0.0051502  | 0.0051502  | 0.0051502  |   0.0 |  4.18
Neigh   | 0          | 0          | 0          |   0.0 |  0.00
Comm    | 0.00013712 | 0.00013712 | 0.00013712 |   0.0 |  0.11
Output  | 0.0059375  | 0.0059375  | 0.0059375  |   0.0 |  4.81
Modify  | 0.11186    | 0.11186    | 0.11186    |   0.0 | 90.70
Other   |            | 0.0002443  |            |       |  0.20

Nlocal:             30 ave          30 max          30 min
Histogram: 1 0 0 0 0 0 0 0 0 0
Nghost:              0 ave           0 max           0 min
Histogram: 1 0 0 0 0 0 0 0 0 0
Neighs:            435 ave         435 max         435 min
Histogram: 1 0 0 0 0 0 0 0 0 0

Total # of neighbors = 435
Ave neighs/atom = 14.5
Neighbor list builds = 0
Dangerous builds = 0




timestep 1e-09


# Run simulation

run 1000
Generated 0 of 1 mixed pair_coeff terms from geometric mixing rule
WARNING: Proc sub-domain size < neighbor skin, could lead to lost atoms (src/domain.cpp:970)
Per MPI rank memory allocation (min/avg/max) = 5.282 | 5.282 | 5.282 Mbytes
   Step          CPU      
     49000   0            
     50000   0.12533262   
Loop time of 0.125353 on 1 procs for 1000 steps with 30 atoms

99.1% CPU use with 1 MPI tasks x no OpenMP threads

MPI task timing breakdown:
Section |  min time  |  avg time  |  max time  |%varavg| %total
---------------------------------------------------------------
Pair    | 0.0051886  | 0.0051886  | 0.0051886  |   0.0 |  4.14
Neigh   | 0          | 0          | 0          |   0.0 |  0.00
Comm    | 0.00014486 | 0.00014486 | 0.00014486 |   0.0 |  0.12
Output  | 0.0065301  | 0.0065301  | 0.0065301  |   0.0 |  5.21
Modify  | 0.11322    | 0.11322    | 0.11322    |   0.0 | 90.32
Other   |            | 0.0002735  |            |       |  0.22

Nlocal:             30 ave          30 max          30 min
Histogram: 1 0 0 0 0 0 0 0 0 0
Nghost:              0 ave           0 max           0 min
Histogram: 1 0 0 0 0 0 0 0 0 0
Neighs:            435 ave         435 max         435 min
Histogram: 1 0 0 0 0 0 0 0 0 0

Total # of neighbors = 435
Ave neighs/atom = 14.5
Neighbor list builds = 0
Dangerous builds = 0




variable coolx atom (9.269386030594033e-20+(2.703426035144626e-21*vx))*-0.5000000000000001
variable cooly atom (9.269386030594033e-20+2.703426035144626e-21*vy)*-0.5000000000000001
variable coolz atom (9.269386030594033e-20+2.703426035144626e-21*vz)*-0.7071067811865476
fix 569202603907010 1 addforce v_coolx v_cooly v_coolz



timestep 1e-08


# Run simulation

run 2000
Generated 0 of 1 mixed pair_coeff terms from geometric mixing rule
WARNING: Proc sub-domain size < neighbor skin, could lead to lost atoms (src/domain.cpp:970)
Per MPI rank memory allocation (min/avg/max) = 5.782 | 5.782 | 5.782 Mbytes
   Step          CPU      
     50000   0            
     52000   0.28054574   
Loop time of 0.280563 on 1 procs for 2000 steps with 30 atoms

99.0% CPU use with 1 MPI tasks x no OpenMP threads

MPI task timing breakdown:
Section |  min time  |  avg time  |  max time  |%varavg| %total
---------------------------------------------------------------
Pair    | 0.010496   | 0.010496   | 0.010496   |   0.0 |  3.74
Neigh   | 0          | 0          | 0          |   0.0 |  0.00
Comm    | 0.00028341 | 0.00028341 | 0.00028341 |   0.0 |  0.10
Output  | 0.012452   | 0.012452   | 0.012452   |   0.0 |  4.44
Modify  | 0.25684    | 0.25684    | 0.25684    |   0.0 | 91.54
Other   |            | 0.0004961  |            |       |  0.18

Nlocal:             30 ave          30 max          30 min
Histogram: 1 0 0 0 0 0 0 0 0 0
Nghost:              0 ave           0 max           0 min
Histogram: 1 0 0 0 0 0 0 0 0 0
Neighs:            435 ave         435 max         435 min
Histogram: 1 0 0 0 0 0 0 0 0 0

Total # of neighbors = 435
Ave neighs/atom = 14.5
Neighbor list builds = 0
Dangerous builds = 0





# Deleting a fix by uid

unfix 469202603907014





# Deleting a fix by uid

unfix 569202603907010




variable E equal 0
variable Ex atom (0.003*(319.039+-320779.0*(x-0)+163840000.0*(x-0)^2+3188.37*(y-0)+-158115000.0*(y-0)^2+-0.483258*(z-0)+16206.1*(z-0)^2))*cos((2*3.141592653589793)*0.0073*step)
variable B equal 0
variable Ey atom (0.003*(-3.62944+3527.19*(x-0)+660075.0*(x-0)^2+320888.0*(y-0)+-1252000.0*(y-0)^2+1.91814*(z-0)+13573.5*(z-0)^2))*cos((2*3.141592653589793)*0.0073*step)
variable C equal 0
variable Ez atom (0.003*(0.00111849+-0.582074*(x-0)+-789.5*(x-0)^2+2.08274*(y-0)+1408.33*(y-0)^2+-57.5482*(z-0)+153.512*(z-0)^2))*cos((2*3.141592653589793)*0.0073*step)
fix 469202603907015 all efield v_Ex v_Ey v_Ez



timestep 1e-08


# Run simulation

run 1000
Generated 0 of 1 mixed pair_coeff terms from geometric mixing rule
WARNING: Proc sub-domain size < neighbor skin, could lead to lost atoms (src/domain.cpp:970)
Per MPI rank memory allocation (min/avg/max) = 5.282 | 5.282 | 5.282 Mbytes
   Step          CPU      
     52000   0            
     53000   0.12290479   
Loop time of 0.122923 on 1 procs for 1000 steps with 30 atoms

99.4% CPU use with 1 MPI tasks x no OpenMP threads

MPI task timing breakdown:
Section |  min time  |  avg time  |  max time  |%varavg| %total
---------------------------------------------------------------
Pair    | 0.0051662  | 0.0051662  | 0.0051662  |   0.0 |  4.20
Neigh   | 0          | 0          | 0          |   0.0 |  0.00
Comm    | 0.00013671 | 0.00013671 | 0.00013671 |   0.0 |  0.11
Output  | 0.0059426  | 0.0059426  | 0.0059426  |   0.0 |  4.83
Modify  | 0.11143    | 0.11143    | 0.11143    |   0.0 | 90.65
Other   |            | 0.0002478  |            |       |  0.20

Nlocal:             30 ave          30 max          30 min
Histogram: 1 0 0 0 0 0 0 0 0 0
Nghost:              0 ave           0 max           0 min
Histogram: 1 0 0 0 0 0 0 0 0 0
Neighs:            435 ave         435 max         435 min
Histogram: 1 0 0 0 0 0 0 0 0 0

Total # of neighbors = 435
Ave neighs/atom = 14.5
Neighbor list builds = 0
Dangerous builds = 0




timestep 1e-09


# Run simulation

run 1000
Generated 0 of 1 mixed pair_coeff terms from geometric mixing rule
WARNING: Proc sub-domain size < neighbor skin, could lead to lost atoms (src/domain.cpp:970)
Per MPI rank memory allocation (min/avg/max) = 5.282 | 5.282 | 5.282 Mbytes
   Step          CPU      
     53000   0            
     54000   0.12437301   
Loop time of 0.124391 on 1 procs for 1000 steps with 30 atoms

99.4% CPU use with 1 MPI tasks x no OpenMP threads

MPI task timing breakdown:
Section |  min time  |  avg time  |  max time  |%varavg| %total
---------------------------------------------------------------
Pair    | 0.0052129  | 0.0052129  | 0.0052129  |   0.0 |  4.19
Neigh   | 0          | 0          | 0          |   0.0 |  0.00
Comm    | 0.00013797 | 0.00013797 | 0.00013797 |   0.0 |  0.11
Output  | 0.005868   | 0.005868   | 0.005868   |   0.0 |  4.72
Modify  | 0.11292    | 0.11292    | 0.11292    |   0.0 | 90.78
Other   |            | 0.0002478  |            |       |  0.20

Nlocal:             30 ave          30 max          30 min
Histogram: 1 0 0 0 0 0 0 0 0 0
Nghost:              0 ave           0 max           0 min
Histogram: 1 0 0 0 0 0 0 0 0 0
Neighs:            435 ave         435 max         435 min
Histogram: 1 0 0 0 0 0 0 0 0 0

Total # of neighbors = 435
Ave neighs/atom = 14.5
Neighbor list builds = 0
Dangerous builds = 0




variable coolx atom (9.269386030594033e-20+(2.703426035144626e-21*vx))*-0.5000000000000001
variable cooly atom (9.269386030594033e-20+2.703426035144626e-21*vy)*-0.5000000000000001
variable coolz atom (9.269386030594033e-20+2.703426035144626e-21*vz)*-0.7071067811865476
fix 569202603907011 1 addforce v_coolx v_cooly v_coolz



timestep 1e-08


# Run simulation

run 2000
Generated 0 of 1 mixed pair_coeff terms from geometric mixing rule
WARNING: Proc sub-domain size < neighbor skin, could lead to lost atoms (src/domain.cpp:970)
Per MPI rank memory allocation (min/avg/max) = 5.782 | 5.782 | 5.782 Mbytes
   Step          CPU      
     54000   0            
     56000   0.27547295   
Loop time of 0.27549 on 1 procs for 2000 steps with 30 atoms

99.4% CPU use with 1 MPI tasks x no OpenMP threads

MPI task timing breakdown:
Section |  min time  |  avg time  |  max time  |%varavg| %total
---------------------------------------------------------------
Pair    | 0.010302   | 0.010302   | 0.010302   |   0.0 |  3.74
Neigh   | 0          | 0          | 0          |   0.0 |  0.00
Comm    | 0.00027592 | 0.00027592 | 0.00027592 |   0.0 |  0.10
Output  | 0.011926   | 0.011926   | 0.011926   |   0.0 |  4.33
Modify  | 0.25251    | 0.25251    | 0.25251    |   0.0 | 91.66
Other   |            | 0.0004789  |            |       |  0.17

Nlocal:             30 ave          30 max          30 min
Histogram: 1 0 0 0 0 0 0 0 0 0
Nghost:              0 ave           0 max           0 min
Histogram: 1 0 0 0 0 0 0 0 0 0
Neighs:            435 ave         435 max         435 min
Histogram: 1 0 0 0 0 0 0 0 0 0

Total # of neighbors = 435
Ave neighs/atom = 14.5
Neighbor list builds = 0
Dangerous builds = 0





# Deleting a fix by uid

unfix 469202603907015





# Deleting a fix by uid

unfix 569202603907011




variable E equal 0
variable Ex atom (0.003*(319.039+-320779.0*(x-0)+163840000.0*(x-0)^2+3188.37*(y-0)+-158115000.0*(y-0)^2+-0.483258*(z-0)+16206.1*(z-0)^2))*cos((2*3.141592653589793)*0.007500000000000001*step)
variable B equal 0
variable Ey atom (0.003*(-3.62944+3527.19*(x-0)+660075.0*(x-0)^2+320888.0*(y-0)+-1252000.0*(y-0)^2+1.91814*(z-0)+13573.5*(z-0)^2))*cos((2*3.141592653589793)*0.007500000000000001*step)
variable C equal 0
variable Ez atom (0.003*(0.00111849+-0.582074*(x-0)+-789.5*(x-0)^2+2.08274*(y-0)+1408.33*(y-0)^2+-57.5482*(z-0)+153.512*(z-0)^2))*cos((2*3.141592653589793)*0.007500000000000001*step)
fix 469202603907016 all efield v_Ex v_Ey v_Ez



timestep 1e-08


# Run simulation

run 1000
Generated 0 of 1 mixed pair_coeff terms from geometric mixing rule
WARNING: Proc sub-domain size < neighbor skin, could lead to lost atoms (src/domain.cpp:970)
Per MPI rank memory allocation (min/avg/max) = 5.282 | 5.282 | 5.282 Mbytes
   Step          CPU      
     56000   0            
     57000   0.12567292   
Loop time of 0.125688 on 1 procs for 1000 steps with 30 atoms

99.5% CPU use with 1 MPI tasks x no OpenMP threads

MPI task timing breakdown:
Section |  min time  |  avg time  |  max time  |%varavg| %total
---------------------------------------------------------------
Pair    | 0.0051436  | 0.0051436  | 0.0051436  |   0.0 |  4.09
Neigh   | 0          | 0          | 0          |   0.0 |  0.00
Comm    | 0.00013635 | 0.00013635 | 0.00013635 |   0.0 |  0.11
Output  | 0.006029   | 0.006029   | 0.006029   |   0.0 |  4.80
Modify  | 0.11414    | 0.11414    | 0.11414    |   0.0 | 90.81
Other   |            | 0.0002373  |            |       |  0.19

Nlocal:             30 ave          30 max          30 min
Histogram: 1 0 0 0 0 0 0 0 0 0
Nghost:              0 ave           0 max           0 min
Histogram: 1 0 0 0 0 0 0 0 0 0
Neighs:            435 ave         435 max         435 min
Histogram: 1 0 0 0 0 0 0 0 0 0

Total # of neighbors = 435
Ave neighs/atom = 14.5
Neighbor list builds = 0
Dangerous builds = 0




timestep 1e-09


# Run simulation

run 1000
Generated 0 of 1 mixed pair_coeff terms from geometric mixing rule
WARNING: Proc sub-domain size < neighbor skin, could lead to lost atoms (src/domain.cpp:970)
Per MPI rank memory allocation (min/avg/max) = 5.282 | 5.282 | 5.282 Mbytes
   Step          CPU      
     57000   0            
     58000   0.12722949   
Loop time of 0.12725 on 1 procs for 1000 steps with 30 atoms

98.8% CPU use with 1 MPI tasks x no OpenMP threads

MPI task timing breakdown:
Section |  min time  |  avg time  |  max time  |%varavg| %total
---------------------------------------------------------------
Pair    | 0.0052498  | 0.0052498  | 0.0052498  |   0.0 |  4.13
Neigh   | 0          | 0          | 0          |   0.0 |  0.00
Comm    | 0.00014378 | 0.00014378 | 0.00014378 |   0.0 |  0.11
Output  | 0.0062865  | 0.0062865  | 0.0062865  |   0.0 |  4.94
Modify  | 0.1153     | 0.1153     | 0.1153     |   0.0 | 90.61
Other   |            | 0.0002682  |            |       |  0.21

Nlocal:             30 ave          30 max          30 min
Histogram: 1 0 0 0 0 0 0 0 0 0
Nghost:              0 ave           0 max           0 min
Histogram: 1 0 0 0 0 0 0 0 0 0
Neighs:            435 ave         435 max         435 min
Histogram: 1 0 0 0 0 0 0 0 0 0

Total # of neighbors = 435
Ave neighs/atom = 14.5
Neighbor list builds = 0
Dangerous builds = 0




variable coolx atom (9.269386030594033e-20+(2.703426035144626e-21*vx))*-0.5000000000000001
variable cooly atom (9.269386030594033e-20+2.703426035144626e-21*vy)*-0.5000000000000001
variable coolz atom (9.269386030594033e-20+2.703426035144626e-21*vz)*-0.7071067811865476
fix 569202603907012 1 addforce v_coolx v_cooly v_coolz



timestep 1e-08


# Run simulation

run 2000
Generated 0 of 1 mixed pair_coeff terms from geometric mixing rule
WARNING: Proc sub-domain size < neighbor skin, could lead to lost atoms (src/domain.cpp:970)
Per MPI rank memory allocation (min/avg/max) = 5.782 | 5.782 | 5.782 Mbytes
   Step          CPU      
     58000   0            
     60000   0.31385049   
Loop time of 0.313939 on 1 procs for 2000 steps with 30 atoms

92.8% CPU use with 1 MPI tasks x no OpenMP threads

MPI task timing breakdown:
Section |  min time  |  avg time  |  max time  |%varavg| %total
---------------------------------------------------------------
Pair    | 0.010722   | 0.010722   | 0.010722   |   0.0 |  3.42
Neigh   | 0          | 0          | 0          |   0.0 |  0.00
Comm    | 0.00032933 | 0.00032933 | 0.00032933 |   0.0 |  0.10
Output  | 0.031381   | 0.031381   | 0.031381   |   0.0 | 10.00
Modify  | 0.27086    | 0.27086    | 0.27086    |   0.0 | 86.28
Other   |            | 0.0006426  |            |       |  0.20

Nlocal:             30 ave          30 max          30 min
Histogram: 1 0 0 0 0 0 0 0 0 0
Nghost:              0 ave           0 max           0 min
Histogram: 1 0 0 0 0 0 0 0 0 0
Neighs:            435 ave         435 max         435 min
Histogram: 1 0 0 0 0 0 0 0 0 0

Total # of neighbors = 435
Ave neighs/atom = 14.5
Neighbor list builds = 0
Dangerous builds = 0





# Deleting a fix by uid

unfix 469202603907016





# Deleting a fix by uid

unfix 569202603907012




variable E equal 0
variable Ex atom (0.003*(319.039+-320779.0*(x-0)+163840000.0*(x-0)^2+3188.37*(y-0)+-158115000.0*(y-0)^2+-0.483258*(z-0)+16206.1*(z-0)^2))*cos((2*3.141592653589793)*0.008*step)
variable B equal 0
variable Ey atom (0.003*(-3.62944+3527.19*(x-0)+660075.0*(x-0)^2+320888.0*(y-0)+-1252000.0*(y-0)^2+1.91814*(z-0)+13573.5*(z-0)^2))*cos((2*3.141592653589793)*0.008*step)
variable C equal 0
variable Ez atom (0.003*(0.00111849+-0.582074*(x-0)+-789.5*(x-0)^2+2.08274*(y-0)+1408.33*(y-0)^2+-57.5482*(z-0)+153.512*(z-0)^2))*cos((2*3.141592653589793)*0.008*step)
fix 469202603907017 all efield v_Ex v_Ey v_Ez



timestep 1e-08


# Run simulation

run 1000
Generated 0 of 1 mixed pair_coeff terms from geometric mixing rule
WARNING: Proc sub-domain size < neighbor skin, could lead to lost atoms (src/domain.cpp:970)
Per MPI rank memory allocation (min/avg/max) = 5.282 | 5.282 | 5.282 Mbytes
   Step          CPU      
     60000   0            
     61000   0.14772235   
Loop time of 0.147746 on 1 procs for 1000 steps with 30 atoms

93.3% CPU use with 1 MPI tasks x no OpenMP threads

MPI task timing breakdown:
Section |  min time  |  avg time  |  max time  |%varavg| %total
---------------------------------------------------------------
Pair    | 0.0057703  | 0.0057703  | 0.0057703  |   0.0 |  3.91
Neigh   | 0          | 0          | 0          |   0.0 |  0.00
Comm    | 0.00022958 | 0.00022958 | 0.00022958 |   0.0 |  0.16
Output  | 0.009413   | 0.009413   | 0.009413   |   0.0 |  6.37
Modify  | 0.1319     | 0.1319     | 0.1319     |   0.0 | 89.27
Other   |            | 0.000436   |            |       |  0.30

Nlocal:             30 ave          30 max          30 min
Histogram: 1 0 0 0 0 0 0 0 0 0
Nghost:              0 ave           0 max           0 min
Histogram: 1 0 0 0 0 0 0 0 0 0
Neighs:            435 ave         435 max         435 min
Histogram: 1 0 0 0 0 0 0 0 0 0

Total # of neighbors = 435
Ave neighs/atom = 14.5
Neighbor list builds = 0
Dangerous builds = 0




timestep 1e-09


# Run simulation

run 1000
Generated 0 of 1 mixed pair_coeff terms from geometric mixing rule
WARNING: Proc sub-domain size < neighbor skin, could lead to lost atoms (src/domain.cpp:970)
Per MPI rank memory allocation (min/avg/max) = 5.282 | 5.282 | 5.282 Mbytes
   Step          CPU      
     61000   0            
     62000   0.1328461    
Loop time of 0.132864 on 1 procs for 1000 steps with 30 atoms

96.9% CPU use with 1 MPI tasks x no OpenMP threads

MPI task timing breakdown:
Section |  min time  |  avg time  |  max time  |%varavg| %total
---------------------------------------------------------------
Pair    | 0.0053309  | 0.0053309  | 0.0053309  |   0.0 |  4.01
Neigh   | 0          | 0          | 0          |   0.0 |  0.00
Comm    | 0.00017129 | 0.00017129 | 0.00017129 |   0.0 |  0.13
Output  | 0.0076904  | 0.0076904  | 0.0076904  |   0.0 |  5.79
Modify  | 0.11937    | 0.11937    | 0.11937    |   0.0 | 89.84
Other   |            | 0.0003028  |            |       |  0.23

Nlocal:             30 ave          30 max          30 min
Histogram: 1 0 0 0 0 0 0 0 0 0
Nghost:              0 ave           0 max           0 min
Histogram: 1 0 0 0 0 0 0 0 0 0
Neighs:            435 ave         435 max         435 min
Histogram: 1 0 0 0 0 0 0 0 0 0

Total # of neighbors = 435
Ave neighs/atom = 14.5
Neighbor list builds = 0
Dangerous builds = 0




variable coolx atom (9.269386030594033e-20+(2.703426035144626e-21*vx))*-0.5000000000000001
variable cooly atom (9.269386030594033e-20+2.703426035144626e-21*vy)*-0.5000000000000001
variable coolz atom (9.269386030594033e-20+2.703426035144626e-21*vz)*-0.7071067811865476
fix 569202603907013 1 addforce v_coolx v_cooly v_coolz



timestep 1e-08


# Run simulation

run 2000
Generated 0 of 1 mixed pair_coeff terms from geometric mixing rule
WARNING: Proc sub-domain size < neighbor skin, could lead to lost atoms (src/domain.cpp:970)
Per MPI rank memory allocation (min/avg/max) = 5.782 | 5.782 | 5.782 Mbytes
   Step          CPU      
     62000   0            
     64000   0.28426867   
Loop time of 0.284286 on 1 procs for 2000 steps with 30 atoms

98.4% CPU use with 1 MPI tasks x no OpenMP threads

MPI task timing breakdown:
Section |  min time  |  avg time  |  max time  |%varavg| %total
---------------------------------------------------------------
Pair    | 0.010486   | 0.010486   | 0.010486   |   0.0 |  3.69
Neigh   | 0          | 0          | 0          |   0.0 |  0.00
Comm    | 0.00029523 | 0.00029523 | 0.00029523 |   0.0 |  0.10
Output  | 0.013693   | 0.013693   | 0.013693   |   0.0 |  4.82
Modify  | 0.25928    | 0.25928    | 0.25928    |   0.0 | 91.20
Other   |            | 0.0005303  |            |       |  0.19

Nlocal:             30 ave          30 max          30 min
Histogram: 1 0 0 0 0 0 0 0 0 0
Nghost:              0 ave           0 max           0 min
Histogram: 1 0 0 0 0 0 0 0 0 0
Neighs:            435 ave         435 max         435 min
Histogram: 1 0 0 0 0 0 0 0 0 0

Total # of neighbors = 435
Ave neighs/atom = 14.5
Neighbor list builds = 0
Dangerous builds = 0





# Deleting a fix by uid

unfix 469202603907017





# Deleting a fix by uid

unfix 569202603907013




variable E equal 0
variable Ex atom (0.003*(319.039+-320779.0*(x-0)+163840000.0*(x-0)^2+3188.37*(y-0)+-158115000.0*(y-0)^2+-0.483258*(z-0)+16206.1*(z-0)^2))*cos((2*3.141592653589793)*0.009000000000000001*step)
variable B equal 0
variable Ey atom (0.003*(-3.62944+3527.19*(x-0)+660075.0*(x-0)^2+320888.0*(y-0)+-1252000.0*(y-0)^2+1.91814*(z-0)+13573.5*(z-0)^2))*cos((2*3.141592653589793)*0.009000000000000001*step)
variable C equal 0
variable Ez atom (0.003*(0.00111849+-0.582074*(x-0)+-789.5*(x-0)^2+2.08274*(y-0)+1408.33*(y-0)^2+-57.5482*(z-0)+153.512*(z-0)^2))*cos((2*3.141592653589793)*0.009000000000000001*step)
fix 469202603907018 all efield v_Ex v_Ey v_Ez



timestep 1e-08


# Run simulation

run 1000
Generated 0 of 1 mixed pair_coeff terms from geometric mixing rule
WARNING: Proc sub-domain size < neighbor skin, could lead to lost atoms (src/domain.cpp:970)
Per MPI rank memory allocation (min/avg/max) = 5.282 | 5.282 | 5.282 Mbytes
   Step          CPU      
     64000   0            
     65000   0.12920511   
Loop time of 0.129231 on 1 procs for 1000 steps with 30 atoms

98.3% CPU use with 1 MPI tasks x no OpenMP threads

MPI task timing breakdown:
Section |  min time  |  avg time  |  max time  |%varavg| %total
---------------------------------------------------------------
Pair    | 0.0053045  | 0.0053045  | 0.0053045  |   0.0 |  4.10
Neigh   | 0          | 0          | 0          |   0.0 |  0.00
Comm    | 0.00014809 | 0.00014809 | 0.00014809 |   0.0 |  0.11
Output  | 0.0069428  | 0.0069428  | 0.0069428  |   0.0 |  5.37
Modify  | 0.11656    | 0.11656    | 0.11656    |   0.0 | 90.20
Other   |            | 0.0002748  |            |       |  0.21

Nlocal:             30 ave          30 max          30 min
Histogram: 1 0 0 0 0 0 0 0 0 0
Nghost:              0 ave           0 max           0 min
Histogram: 1 0 0 0 0 0 0 0 0 0
Neighs:            435 ave         435 max         435 min
Histogram: 1 0 0 0 0 0 0 0 0 0

Total # of neighbors = 435
Ave neighs/atom = 14.5
Neighbor list builds = 0
Dangerous builds = 0




timestep 1e-09


# Run simulation

run 1000
Generated 0 of 1 mixed pair_coeff terms from geometric mixing rule
WARNING: Proc sub-domain size < neighbor skin, could lead to lost atoms (src/domain.cpp:970)
Per MPI rank memory allocation (min/avg/max) = 5.282 | 5.282 | 5.282 Mbytes
   Step          CPU      
     65000   0            
     66000   0.12731295   
Loop time of 0.127334 on 1 procs for 1000 steps with 30 atoms

98.9% CPU use with 1 MPI tasks x no OpenMP threads

MPI task timing breakdown:
Section |  min time  |  avg time  |  max time  |%varavg| %total
---------------------------------------------------------------
Pair    | 0.0052254  | 0.0052254  | 0.0052254  |   0.0 |  4.10
Neigh   | 0          | 0          | 0          |   0.0 |  0.00
Comm    | 0.00014342 | 0.00014342 | 0.00014342 |   0.0 |  0.11
Output  | 0.0065984  | 0.0065984  | 0.0065984  |   0.0 |  5.18
Modify  | 0.1151     | 0.1151     | 0.1151     |   0.0 | 90.40
Other   |            | 0.000262   |            |       |  0.21

Nlocal:             30 ave          30 max          30 min
Histogram: 1 0 0 0 0 0 0 0 0 0
Nghost:              0 ave           0 max           0 min
Histogram: 1 0 0 0 0 0 0 0 0 0
Neighs:            435 ave         435 max         435 min
Histogram: 1 0 0 0 0 0 0 0 0 0

Total # of neighbors = 435
Ave neighs/atom = 14.5
Neighbor list builds = 0
Dangerous builds = 0




variable coolx atom (9.269386030594033e-20+(2.703426035144626e-21*vx))*-0.5000000000000001
variable cooly atom (9.269386030594033e-20+2.703426035144626e-21*vy)*-0.5000000000000001
variable coolz atom (9.269386030594033e-20+2.703426035144626e-21*vz)*-0.7071067811865476
fix 569202603907014 1 addforce v_coolx v_cooly v_coolz



timestep 1e-08


# Run simulation

run 2000
Generated 0 of 1 mixed pair_coeff terms from geometric mixing rule
WARNING: Proc sub-domain size < neighbor skin, could lead to lost atoms (src/domain.cpp:970)
Per MPI rank memory allocation (min/avg/max) = 5.782 | 5.782 | 5.782 Mbytes
   Step          CPU      
     66000   0            
     68000   0.28579339   
Loop time of 0.285811 on 1 procs for 2000 steps with 30 atoms

98.9% CPU use with 1 MPI tasks x no OpenMP threads

MPI task timing breakdown:
Section |  min time  |  avg time  |  max time  |%varavg| %total
---------------------------------------------------------------
Pair    | 0.010456   | 0.010456   | 0.010456   |   0.0 |  3.66
Neigh   | 0          | 0          | 0          |   0.0 |  0.00
Comm    | 0.00029454 | 0.00029454 | 0.00029454 |   0.0 |  0.10
Output  | 0.01347    | 0.01347    | 0.01347    |   0.0 |  4.71
Modify  | 0.26109    | 0.26109    | 0.26109    |   0.0 | 91.35
Other   |            | 0.000506   |            |       |  0.18

Nlocal:             30 ave          30 max          30 min
Histogram: 1 0 0 0 0 0 0 0 0 0
Nghost:              0 ave           0 max           0 min
Histogram: 1 0 0 0 0 0 0 0 0 0
Neighs:            435 ave         435 max         435 min
Histogram: 1 0 0 0 0 0 0 0 0 0

Total # of neighbors = 435
Ave neighs/atom = 14.5
Neighbor list builds = 0
Dangerous builds = 0





# Deleting a fix by uid

unfix 469202603907018





# Deleting a fix by uid

unfix 569202603907014


Total wall time: 0:00:07
