LAMMPS (23 Jun 2022)
##################################################################
# LAMMPS input file generated using pylion 0.5.3
# simulation name: test
#
# pylion is written and maintained by Dimitris Trypogeorgos
# and Elliot Bentine. Download it from
# https://bitbucket.org/dtrypogeorgos/pylion
#
# If you find it useful please cite <paper>.
##################################################################



units si
atom_style charge

# Creating simulation box...
boundary m m m
region simulationDomain block -0.001  0.001 -0.001 0.001 -0.001 0.001 units box
create_box 1 simulationDomain
Created orthogonal box = (-0.001 -0.001 -0.001) to (0.001 0.001 0.001)
  1 by 1 by 1 MPI processor grid

# Configure neighbour list...
neighbor 1 nsq
neigh_modify once yes

# Configure pairwise interactions for long range Coulombics only...
pair_style coul/cut 10
pair_coeff * *

# Placing individual ions...


create_atoms 1 single 9.008115843751625e-05 -0.00011146892611975686 0.00021530138934369044 units box
Created 1 atoms
  using box units in orthogonal box = (-0.001 -0.001 -0.001) to (0.001 0.001 0.001)
  create_atoms CPU = 0.000 seconds


# Species...
mass 1 1.4944851e-26
set type 1 charge 1.6021764599999998e-19
Setting atom values ...
  1 settings made for charge
group 1 type 1
1 atoms in group 1



# Configuring additional output to flush buffer during simulation...
thermo 10000
thermo_style custom step cpu
thermo_modify flush yes

# Time integration...

group nonRigidBody union all
1 atoms in group nonRigidBody

fix timeIntegrator nonRigidBody nve



# Enabling GPU acceleration via CUDA...


package gpu 1
ERROR: Package command after simulation box is defined (src/input.cpp:1629)
Last command: package gpu 1
