ITEM: TIMESTEP
0
ITEM: NUMBER OF ATOMS
10
ITEM: BOX BOUNDS mm mm mm
-1.0000000000000000e-03 1.0000000000000000e-03
-1.0000000000000000e-03 1.0000000000000000e-03
-1.0000000000000000e-03 1.0000000000000000e-03
ITEM: ATOMS id x y z vx vy vz
1 3.10566e-05 -7.9942e-05 -4.10314e-05 0 0 0
2 -2.30829e-05 5.04846e-06 0.000140387 0 0 0
3 0.000204218 0.000153465 0.000843105 0 0 0
4 -1.34581e-05 9.49201e-05 -0.000212111 0 0 0
5 0.000189023 -0.000128477 -9.18403e-05 0 0 0
6 -1.00603e-05 4.50567e-05 -9.27342e-05 0 0 0
7 -5.84644e-05 -1.50538e-05 -5.84431e-05 0 0 0
8 0.000417234 0.00049046 -0.00073998 0 0 0
9 -0.000232092 -0.00028352 -0.00069761 0 0 0
10 -0.000241019 -0.000461529 -0.000109868 0 0 0
ITEM: TIMESTEP
10
ITEM: NUMBER OF ATOMS
10
ITEM: BOX BOUNDS mm mm mm
-1.0000000000000000e-03 1.0000000000000000e-03
-1.0000000000000000e-03 1.0000000000000000e-03
-1.0000000000000000e-03 1.0000000000000000e-03
ITEM: ATOMS id x y z vx vy vz
1 1.43712e-05 -3.69876e-05 -3.89196e-05 -299.372 770.744 41.9125
2 -1.06782e-05 2.33621e-06 0.000133181 222.595 -48.6685 -142.836
3 9.44665e-05 7.09894e-05 0.000799793 -1969.42 -1479.97 -858.586
4 -6.2257e-06 4.39121e-05 -0.000201222 129.778 -915.299 215.831
5 8.74433e-05 -5.94332e-05 -8.71236e-05 -1822.73 1238.92 93.4912
6 -4.64885e-06 2.08541e-05 -8.79749e-05 97.1199 -434.233 94.2838
7 -2.70584e-05 -6.96806e-06 -5.54359e-05 563.479 145.094 59.6517
8 0.000193003 0.000226875 -0.000701966 -4023.67 -4729.84 753.568
9 -0.000107361 -0.00013115 -0.000661774 2238.22 2734.18 710.409
10 -0.000111491 -0.000213494 -0.000104224 2324.29 4450.8 111.884
ITEM: TIMESTEP
20
ITEM: NUMBER OF ATOMS
10
ITEM: BOX BOUNDS mm mm mm
-1.0000000000000000e-03 1.0000000000000000e-03
-1.0000000000000000e-03 1.0000000000000000e-03
-1.0000000000000000e-03 1.0000000000000000e-03
ITEM: ATOMS id x y z vx vy vz
1 -1.77415e-05 4.57004e-05 -3.26672e-05 -277.219 713.391 81.786
2 1.32034e-05 -2.88587e-06 0.000112309 205.948 -45.0504 -270.919
3 -0.000116822 -8.77891e-05 0.000674309 -1822.01 -1369.2 -1628.95
4 7.69774e-06 -5.42886e-05 -0.000169689 120.076 -846.909 409.275
5 -0.000108075 7.34616e-05 -7.34775e-05 -1686.22 1146.07 177.048
6 5.74063e-06 -2.57064e-05 -7.42527e-05 89.4126 -401.871 177.826
7 3.33909e-05 8.60867e-06 -4.6734e-05 521.892 134.295 112.914
8 -0.000238676 -0.000280564 -0.000591834 -3722.51 -4375.82 1429.65
9 0.000132766 0.000162185 -0.000557944 2070.7 2529.53 1347.86
10 0.000137864 0.000264002 -8.78985e-05 2150.32 4117.68 211.808
ITEM: TIMESTEP
30
ITEM: NUMBER OF ATOMS
10
ITEM: BOX BOUNDS mm mm mm
-1.0000000000000000e-03 1.0000000000000000e-03
-1.0000000000000000e-03 1.0000000000000000e-03
-1.0000000000000000e-03 1.0000000000000000e-03
ITEM: ATOMS id x y z vx vy vz
1 -3.0809e-05 7.92977e-05 -2.29452e-05 42.7509 -110.538 110.909
2 2.28946e-05 -5.00839e-06 7.99187e-05 -32.0462 6.96253 -371.155
3 -0.000202545 -0.000152208 0.000479546 283.774 213.248 -2231.95
4 1.33481e-05 -9.4149e-05 -0.000120753 -18.6854 131.627 560.805
5 -0.000187439 0.000127397 -5.23009e-05 262.115 -178.241 242.755
6 9.9363e-06 -4.46617e-05 -5.29628e-05 -14.1108 61.7935 244.258
7 5.80029e-05 1.49354e-05 -3.32283e-05 -80.297 -20.7687 154.777
8 -0.000413815 -0.000486441 -0.000420898 579.769 681.519 1958.9
9 0.00023019 0.000281197 -0.00039679 -322.492 -393.957 1846.78
10 0.000239039 0.000457741 -6.25625e-05 -334.819 -641.179 290.443
ITEM: TIMESTEP
40
ITEM: NUMBER OF ATOMS
10
ITEM: BOX BOUNDS mm mm mm
-1.0000000000000000e-03 1.0000000000000000e-03
-1.0000000000000000e-03 1.0000000000000000e-03
-1.0000000000000000e-03 1.0000000000000000e-03
ITEM: ATOMS id x y z vx vy vz
1 -1.07752e-05 2.76862e-05 -1.08636e-05 316.651 -815.437 128.618
2 7.97993e-06 -1.75198e-06 3.93493e-05 -235.57 51.4447 -432.919
3 -7.05637e-05 -5.30272e-05 0.000235515 2084.53 1566.47 -2605.59
4 4.65183e-06 -3.28397e-05 -5.94435e-05 -137.36 968.39 654.387
5 -6.53489e-05 4.44073e-05 -2.57528e-05 1928.6 -1310.91 283.506
6 3.43754e-06 -1.56352e-05 -2.62302e-05 -102.599 458.885 285.664
7 2.03085e-05 5.22754e-06 -1.63073e-05 -595.851 -153.318 180.696
8 -0.000144167 -0.000169468 -0.000206719 4258.87 5006.32 2286.88
9 8.01964e-05 9.79657e-05 -0.000194872 -2369.03 -2893.98 2155.92
10 8.3285e-05 0.000159482 -3.07979e-05 -2460.06 -4710.84 339.247
ITEM: TIMESTEP
50
ITEM: NUMBER OF ATOMS
10
ITEM: BOX BOUNDS mm mm mm
-1.0000000000000000e-03 1.0000000000000000e-03
-1.0000000000000000e-03 1.0000000000000000e-03
-1.0000000000000000e-03 1.0000000000000000e-03
ITEM: ATOMS id x y z vx vy vz
1 2.06709e-05 -5.35739e-05 3.00717e-06 249.299 -644.333 142.597
2 -1.55017e-05 3.38011e-06 -5.03189e-06 -185.537 40.4716 -447.214
3 0.000137266 0.000103152 -3.26915e-05 1644.91 1236.12 -2711.26
4 -9.04633e-06 6.37887e-05 7.68556e-06 -108.483 766.767 677.353
5 0.000126709 -8.61722e-05 3.28265e-06 1520.06 -1033.46 292.937
6 -6.64154e-06 2.99793e-05 2.76783e-06 -78.3557 362.071 291.404
7 -3.89751e-05 -1.02641e-05 2.35132e-06 -471.529 -124.471 188.678
8 0.000280432 0.000329648 2.86783e-05 3360.33 3950.08 2379.63
9 -0.00015599 -0.000190554 2.70402e-05 -1869.28 -2283.39 2243.25
10 -0.00016191 -0.000310082 4.06755e-06 -1940.4 -3716.11 352.294
ITEM: TIMESTEP
60
ITEM: NUMBER OF ATOMS
10
ITEM: BOX BOUNDS mm mm mm
-1.0000000000000000e-03 1.0000000000000000e-03
-1.0000000000000000e-03 1.0000000000000000e-03
-1.0000000000000000e-03 1.0000000000000000e-03
ITEM: ATOMS id x y z vx vy vz
1 2.98918e-05 -7.73185e-05 1.68716e-05 -83.8704 218.318 132.243
2 -2.22803e-05 4.85104e-06 -4.87837e-05 63.7904 -13.9661 -419.955
3 0.000197571 0.000148471 -0.000297529 -562.804 -422.926 -2538.75
4 -1.3028e-05 9.20531e-05 7.38918e-05 37.0424 -259.815 635.085
5 0.000182516 -0.000124099 3.19099e-05 -518.674 352.895 274.557
6 -9.44022e-06 4.33948e-05 3.12808e-05 28.0378 -121.454 273.754
7 -5.65118e-05 -1.49233e-05 2.07975e-05 157.114 41.0296 176.915
8 0.000403611 0.000474446 0.000261119 -1149.97 -1351.79 2228.18
9 -0.000224519 -0.000274258 0.000246161 639.601 781.391 2100.51
10 -0.000233052 -0.000446327 3.84877e-05 663.815 1271.3 330.036
ITEM: TIMESTEP
70
ITEM: NUMBER OF ATOMS
10
ITEM: BOX BOUNDS mm mm mm
-1.0000000000000000e-03 1.0000000000000000e-03
-1.0000000000000000e-03 1.0000000000000000e-03
-1.0000000000000000e-03 1.0000000000000000e-03
ITEM: ATOMS id x y z vx vy vz
1 7.00097e-06 -1.79882e-05 2.90023e-05 -326.746 846.148 108.044
2 -5.10813e-06 1.10795e-06 -8.75804e-05 244.349 -53.1975 -349.116
3 4.55203e-05 3.42085e-05 -0.000531802 -2165.65 -1627.44 -2105.37
4 -3.00771e-06 2.14222e-05 0.000132544 142.758 -1007.64 527.667
5 4.21623e-05 -2.86473e-05 5.72608e-05 -1999.72 1359.86 228.034
6 -2.0716e-06 1.0191e-05 5.65851e-05 104.249 -474.063 228.094
7 -1.33623e-05 -3.57124e-06 3.71187e-05 616.857 162.689 146.45
8 9.29711e-05 0.000109289 0.000466733 -4424.23 -5200.7 1847.82
9 -5.17264e-05 -6.31776e-05 0.000439996 2461.03 3006.29 1741.98
10 -5.37006e-05 -0.000102844 6.89521e-05 2554.49 4892.22 273.888
ITEM: TIMESTEP
80
ITEM: NUMBER OF ATOMS
10
ITEM: BOX BOUNDS mm mm mm
-1.0000000000000000e-03 1.0000000000000000e-03
-1.0000000000000000e-03 1.0000000000000000e-03
-1.0000000000000000e-03 1.0000000000000000e-03
ITEM: ATOMS id x y z vx vy vz
1 -2.33838e-05 6.0649e-05 3.78123e-05 -218.886 565.269 68.8735
2 1.75533e-05 -3.82381e-06 -0.000117416 162.301 -35.3107 -242.277
3 -0.000155458 -0.000116823 -0.000711439 -1440.76 -1082.71 -1455.66
4 1.02447e-05 -7.22215e-05 0.000177638 95.0537 -672.79 366.101
5 -0.000141902 9.59045e-05 7.76072e-05 -1317.43 890.072 168.712
6 5.97016e-06 -3.2225e-05 7.5301e-05 53.7728 -302.469 149.17
7 4.40915e-05 1.16128e-05 4.96815e-05 414.777 109.682 101.919
8 -0.000317596 -0.000373334 0.000624411 -2943.12 -3459.66 1277.79
9 0.000176661 0.000215806 0.000588615 1637.24 1999.9 1204.28
10 0.000183346 0.00035115 9.24855e-05 1699.39 3254.69 191.473
ITEM: TIMESTEP
90
ITEM: NUMBER OF ATOMS
10
ITEM: BOX BOUNDS mm mm mm
-1.0000000000000000e-03 1.0000000000000000e-03
-1.0000000000000000e-03 1.0000000000000000e-03
-1.0000000000000000e-03 1.0000000000000000e-03
ITEM: ATOMS id x y z vx vy vz
1 -2.86626e-05 7.41368e-05 4.2637e-05 124.169 -323.252 26.7746
2 2.1349e-05 -4.64793e-06 -0.000135207 -94.1912 20.5238 -110.396
3 -0.000189342 -0.000142287 -0.000817981 832.723 625.763 -656.385
4 1.24868e-05 -8.825e-05 0.000204508 -54.8213 385.176 166.56
5 -0.000173026 0.000116913 9.02057e-05 758.954 -513.1 81.0334
6 7.13864e-06 -3.95721e-05 8.60992e-05 -32.7973 170.648 64.8823
7 5.42179e-05 1.43172e-05 5.71436e-05 -233.089 -61.1613 46.0138
8 -0.000386796 -0.00045468 0.00071794 1701.38 1999.96 576.274
9 0.000215165 0.000262832 0.000676757 -946.311 -1156.06 543.003
10 0.000223324 0.000427713 0.000106556 -982.026 -1880.81 87.4511
ITEM: TIMESTEP
100
ITEM: NUMBER OF ATOMS
10
ITEM: BOX BOUNDS mm mm mm
-1.0000000000000000e-03 1.0000000000000000e-03
-1.0000000000000000e-03 1.0000000000000000e-03
-1.0000000000000000e-03 1.0000000000000000e-03
ITEM: ATOMS id x y z vx vy vz
1 -3.14846e-06 7.96102e-06 4.30668e-05 333.425 -864.042 -18.7251
2 2.19885e-06 -4.78123e-07 -0.000139119 -249.447 54.3018 32.8207
3 -1.9713e-05 -1.4815e-05 -0.000840482 2211.16 1661.64 210.336
4 1.30834e-06 -9.43256e-06 0.000210384 -145.768 1029.15 -50.0379
5 -1.81887e-05 1.2265e-05 9.35405e-05 2019.24 -1364.6 -14.7957
6 6.21797e-07 -4.41675e-06 8.80671e-05 -84.0702 459.945 -25.6053
7 6.10718e-06 1.6413e-06 5.87222e-05 -629.876 -166.462 -14.7295
8 -4.02497e-05 -4.73146e-05 0.000737705 4517.14 5309.92 -184.445
9 2.24001e-05 2.73536e-05 0.000695368 -2512.72 -3069.42 -174.066
10 2.32647e-05 4.45547e-05 0.000109679 -2607.83 -4994.6 -25.4974
ITEM: TIMESTEP
110
ITEM: NUMBER OF ATOMS
10
ITEM: BOX BOUNDS mm mm mm
-1.0000000000000000e-03 1.0000000000000000e-03
-1.0000000000000000e-03 1.0000000000000000e-03
-1.0000000000000000e-03 1.0000000000000000e-03
ITEM: ATOMS id x y z vx vy vz
1 2.57415e-05 -6.67662e-05 3.88626e-05 184.938 -476.851 -63.4279
2 -1.93146e-05 4.20535e-06 -0.000128755 -136.6 29.7444 172.649
3 0.000171105 0.000128581 -0.00077663 1212.94 911.506 1055.44
4 -1.12763e-05 7.95222e-05 0.000194675 -80.0556 567.101 -261.435
5 0.000156308 -0.000105628 8.75861e-05 1110.67 -750.173 -105.951
6 -6.66895e-06 3.55563e-05 8.07569e-05 -45.5732 256.474 -116.695
7 -4.8553e-05 -1.27988e-05 5.42789e-05 -350.938 -92.7657 -73.649
8 0.00034956 0.000410908 0.000681686 2477.69 2912.55 -926.133
9 -0.000194442 -0.000237526 0.000642529 -1378.36 -1683.65 -873.324
10 -0.000201812 -0.000386505 0.000101621 -1430.85 -2740.28 -134.978
ITEM: TIMESTEP
120
ITEM: NUMBER OF ATOMS
10
ITEM: BOX BOUNDS mm mm mm
-1.0000000000000000e-03 1.0000000000000000e-03
-1.0000000000000000e-03 1.0000000000000000e-03
-1.0000000000000000e-03 1.0000000000000000e-03
ITEM: ATOMS id x y z vx vy vz
1 2.6986e-05 -6.97593e-05 3.06287e-05 -162.608 423.139 -99.7936
2 -2.0069e-05 4.37076e-06 -0.000105177 123.063 -26.7749 294.743
3 0.000178011 0.000133772 -0.000632985 -1089.01 -818.354 1792.11
4 -1.17415e-05 8.30128e-05 0.000158984 71.7072 -504.456 -446.078
5 0.000162837 -0.000110008 7.2673e-05 -993.521 671.589 -189.681
6 -6.79371e-06 3.73635e-05 6.51399e-05 43.3354 -224.05 -192.898
7 -5.10775e-05 -1.34871e-05 4.42477e-05 305.637 80.411 -125.198
8 0.000363646 0.000427468 0.000555629 -2224.92 -2615.39 -1572.76
9 -0.00020229 -0.000247102 0.000523675 1237.54 1511.81 -1482.77
10 -0.000209977 -0.00040214 8.31322e-05 1284.32 2459.72 -231.534
ITEM: TIMESTEP
130
ITEM: NUMBER OF ATOMS
10
ITEM: BOX BOUNDS mm mm mm
-1.0000000000000000e-03 1.0000000000000000e-03
-1.0000000000000000e-03 1.0000000000000000e-03
-1.0000000000000000e-03 1.0000000000000000e-03
ITEM: ATOMS id x y z vx vy vz
1 -7.50831e-07 2.19381e-06 1.92201e-05 -334.778 867.754 -128.215
2 7.45831e-07 -1.58543e-07 -7.08152e-05 250.447 -54.5003 386.341
3 -6.4171e-06 -4.82106e-06 -0.000424306 -2220.43 -1668.61 2344.63
4 4.12341e-07 -2.70711e-06 0.000106986 146.379 -1033.72 -584.483
5 -5.63308e-06 3.84186e-06 5.03026e-05 -2029.7 1371.32 -252.885
6 4.03575e-07 -9.37715e-07 4.28551e-05 86.1405 -463.065 -248.177
7 1.23575e-06 3.05975e-07 2.96539e-05 632.462 167.107 -164.357
8 -1.31304e-05 -1.54338e-05 0.000372486 -4536.09 -5332.18 -2057.73
9 7.2923e-06 8.91771e-06 0.000351021 2523.28 3082.31 -1939.87
10 7.54529e-06 1.44558e-05 5.61036e-05 2619.09 5015.89 -303.902
ITEM: TIMESTEP
140
ITEM: NUMBER OF ATOMS
10
ITEM: BOX BOUNDS mm mm mm
-1.0000000000000000e-03 1.0000000000000000e-03
-1.0000000000000000e-03 1.0000000000000000e-03
-1.0000000000000000e-03 1.0000000000000000e-03
ITEM: ATOMS id x y z vx vy vz
1 -2.76896e-05 7.18102e-05 5.47468e-06 -148.172 381.008 -142.812
2 2.07603e-05 -4.51958e-06 -2.92379e-05 108.686 -23.7417 437.842
3 -0.000183949 -0.000138233 -0.000172039 -965.257 -725.386 2656.21
4 1.21235e-05 -8.55306e-05 4.40846e-05 63.7614 -452.553 -662.63
5 -0.000168131 0.000113584 2.2937e-05 -885.31 597.604 -290.33
6 7.19821e-06 -3.83033e-05 1.63306e-05 35.644 -206.307 -278.226
7 5.22448e-05 1.3773e-05 1.19344e-05 282.002 74.6841 -186.496
8 -0.000375798 -0.000441752 0.000151085 -1971.7 -2317.75 -2331.28
9 0.000209041 0.000255358 0.000142303 1096.93 1339.85 -2197.63
10 0.000216993 0.000415555 2.33778e-05 1138.97 2181.13 -345.145
ITEM: TIMESTEP
150
ITEM: NUMBER OF ATOMS
10
ITEM: BOX BOUNDS mm mm mm
-1.0000000000000000e-03 1.0000000000000000e-03
-1.0000000000000000e-03 1.0000000000000000e-03
-1.0000000000000000e-03 1.0000000000000000e-03
ITEM: ATOMS id x y z vx vy vz
1 -2.48937e-05 6.42876e-05 -8.84468e-06 198.334 -515.979 -141.061
2 1.84523e-05 -4.01389e-06 1.52749e-05 -150.151 32.8709 444.961
3 -0.000163769 -0.00012307 9.78996e-05 1327.37 997.475 2694.95
4 1.08068e-05 -7.6488e-05 -2.33049e-05 -87.3817 614.73 -673.391
5 -0.000149938 0.000101254 -6.77968e-06 1211.76 -818.86 -298.766
6 6.21625e-06 -3.45518e-05 -1.18516e-05 -53.3128 273.57 -280.565
7 4.71947e-05 1.24833e-05 -6.9991e-06 -372.507 -97.7606 -188.988
8 -0.000334542 -0.000393256 -8.58374e-05 2712.01 3187.96 -2365.37
9 0.000186106 0.000227329 -8.10294e-05 -1508.47 -1842.8 -2229.64
10 0.000193211 0.000370005 -1.1751e-05 -1565.74 -2998.49 -351.224
ITEM: TIMESTEP
160
ITEM: NUMBER OF ATOMS
10
ITEM: BOX BOUNDS mm mm mm
-1.0000000000000000e-03 1.0000000000000000e-03
-1.0000000000000000e-03 1.0000000000000000e-03
-1.0000000000000000e-03 1.0000000000000000e-03
ITEM: ATOMS id x y z vx vy vz
1 4.62238e-06 -1.22765e-05 -2.2174e-05 333.095 -859.919 -118.571
2 -3.70419e-06 8.20031e-07 5.82971e-05 -247.394 53.8536 407.843
3 3.24306e-05 2.4369e-05 0.000357786 2193.31 1648.23 2456.92
4 -2.12022e-06 1.46681e-05 -8.83578e-05 -144.594 1021.3 -616.602
5 2.9366e-05 -1.9886e-05 -3.58205e-05 2006.28 -1355.22 -277.836
6 -1.50008e-06 6.26342e-06 -3.88818e-05 -85.4125 459.049 -257.679
7 -8.43691e-06 -2.15494e-06 -2.52212e-05 -627.759 -162.93 -172.652
8 6.62929e-05 7.79259e-05 -0.000313944 4480.71 5267.09 -2156.56
9 -3.68587e-05 -4.50412e-05 -0.000296044 -2492.5 -3044.7 -2032.71
10 -3.82362e-05 -7.32276e-05 -4.56776e-05 -2587.52 -4955.2 -321.664
ITEM: TIMESTEP
170
ITEM: NUMBER OF ATOMS
10
ITEM: BOX BOUNDS mm mm mm
-1.0000000000000000e-03 1.0000000000000000e-03
-1.0000000000000000e-03 1.0000000000000000e-03
-1.0000000000000000e-03 1.0000000000000000e-03
ITEM: ATOMS id x y z vx vy vz
1 2.9323e-05 -7.58211e-05 -3.26576e-05 109.836 -279.918 -89.5382
2 -2.18796e-05 4.77205e-06 9.54179e-05 -78.7447 17.0491 327.925
3 0.000193771 0.000145614 0.00058092 701.829 527.429 1966.38
4 -1.27679e-05 9.00454e-05 -0.000144466 -46.4576 331.225 -495.479
5 0.000177147 -0.000119676 -6.12996e-05 645.226 -435.289 -227.185
6 -7.63304e-06 4.03811e-05 -6.22643e-05 -24.7751 152.624 -205.396
7 -5.51558e-05 -1.42858e-05 -4.08549e-05 -209.89 -54.773 -137.608
8 0.000395874 0.00046535 -0.000509805 1433.37 1684.95 -1726.09
9 -0.000220206 -0.000268999 -0.000480652 -797.535 -974.06 -1626.87
10 -0.000228593 -0.000437764 -7.49514e-05 -828.245 -1586.07 -258.633
ITEM: TIMESTEP
180
ITEM: NUMBER OF ATOMS
10
ITEM: BOX BOUNDS mm mm mm
-1.0000000000000000e-03 1.0000000000000000e-03
-1.0000000000000000e-03 1.0000000000000000e-03
-1.0000000000000000e-03 1.0000000000000000e-03
ITEM: ATOMS id x y z vx vy vz
1 2.25213e-05 -5.78969e-05 -3.97799e-05 -231.881 601.545 -51.6387
2 -1.654e-05 3.59833e-06 0.00012276 174.561 -38.1116 214.081
3 0.000146838 0.000110347 0.000744371 -1544.02 -1160.28 1273.79
4 -9.69304e-06 6.8657e-05 -0.000185759 101.633 -715.036 -323.106
5 0.000134539 -9.08406e-05 -8.04834e-05 -1409.77 952.707 -153.108
6 -5.54445e-06 3.11296e-05 -7.92569e-05 62.2587 -318.608 -131.478
7 -4.26355e-05 -1.10787e-05 -5.22803e-05 434.537 112.323 -88.8677
8 0.000299951 0.000352595 -0.000653288 -3154.63 -3708.27 -1118.25
9 -0.000166867 -0.000203825 -0.00061588 1754.67 2143.56 -1053.83
10 -0.00017325 -0.000331775 -9.65241e-05 1821.34 3487.96 -169.016
ITEM: TIMESTEP
190
ITEM: NUMBER OF ATOMS
10
ITEM: BOX BOUNDS mm mm mm
-1.0000000000000000e-03 1.0000000000000000e-03
-1.0000000000000000e-03 1.0000000000000000e-03
-1.0000000000000000e-03 1.0000000000000000e-03
ITEM: ATOMS id x y z vx vy vz
1 -8.46042e-06 2.22261e-05 -4.27419e-05 -324.287 836.476 -6.07401
2 6.57643e-06 -1.44097e-06 0.000137506 240.251 -52.3233 78.2452
3 -5.79238e-05 -4.35265e-05 0.000831343 -2130.28 -1600.87 450.314
4 3.79936e-06 -2.65165e-05 -0.000207992 140.484 -992.828 -117.669
5 -5.26298e-05 3.56049e-05 -9.14229e-05 -1948.91 1316.22 -64.0841
6 2.49876e-06 -1.1518e-05 -8.81357e-05 81.8938 -446.782 -44.6884
7 1.56525e-05 4.0328e-06 -5.83286e-05 611.823 158.732 -31.2821
8 -0.000118372 -0.000139145 -0.000729652 -4351.88 -5115.66 -395.584
9 6.58278e-05 8.04287e-05 -0.000687831 2420.87 2957.18 -372.475
10 6.83021e-05 0.000130809 -0.000108194 2513.17 4812.85 -62.5388
ITEM: TIMESTEP
200
ITEM: NUMBER OF ATOMS
10
ITEM: BOX BOUNDS mm mm mm
-1.0000000000000000e-03 1.0000000000000000e-03
-1.0000000000000000e-03 1.0000000000000000e-03
-1.0000000000000000e-03 1.0000000000000000e-03
ITEM: ATOMS id x y z vx vy vz
1 -3.03594e-05 7.84781e-05 -4.11232e-05 -68.5825 172.828 38.0234
2 2.26246e-05 -4.93216e-06 0.000138141 47.7226 -10.3237 -65.6717
3 -0.000200426 -0.000150615 0.000832901 -426.819 -320.768 -419.427
4 1.32085e-05 -9.31923e-05 -0.000208885 28.3535 -203.621 100.001
5 -0.000183208 0.000123757 -9.30309e-05 -394.144 265.568 32.2415
6 7.82249e-06 -4.17697e-05 -8.80242e-05 13.6581 -95.9366 47.0562
7 5.71411e-05 1.48053e-05 -5.83929e-05 132.485 34.6074 29.9298
8 -0.000409463 -0.000481325 -0.000731054 -871.539 -1024.52 367.786
9 0.000227767 0.000278234 -0.000689111 485.019 592.294 347.11
10 0.000236437 0.000452792 -0.000108784 503.875 964.874 50.8466
ITEM: TIMESTEP
210
ITEM: NUMBER OF ATOMS
10
ITEM: BOX BOUNDS mm mm mm
-1.0000000000000000e-03 1.0000000000000000e-03
-1.0000000000000000e-03 1.0000000000000000e-03
-1.0000000000000000e-03 1.0000000000000000e-03
ITEM: ATOMS id x y z vx vy vz
1 -1.9638e-05 5.03965e-05 -3.52699e-05 260.954 -676.708 78.0298
2 1.43559e-05 -3.1239e-06 0.000124595 -196.098 42.7704 -202.842
3 -0.000127501 -9.58158e-05 0.000748885 1735.41 1304.11 -1246.07
4 8.42124e-06 -5.97095e-05 -0.000188332 -114.256 804.442 307.42
5 -0.000116878 7.8895e-05 -8.50836e-05 1584.36 -1070.57 125.296
6 4.72642e-06 -2.71524e-05 -7.88799e-05 -69.2299 358.194 134.193
7 3.72441e-05 9.67427e-06 -5.24475e-05 -489.478 -126.671 87.9466
8 -0.000260444 -0.000306154 -0.000657346 3545.58 4167.83 1093.37
9 0.000144892 0.00017698 -0.00061959 -1972.16 -2409.21 1031.03
10 0.00015044 0.000288095 -9.81971e-05 -2047.03 -3920.23 159.017
ITEM: TIMESTEP
220
ITEM: NUMBER OF ATOMS
10
ITEM: BOX BOUNDS mm mm mm
-1.0000000000000000e-03 1.0000000000000000e-03
-1.0000000000000000e-03 1.0000000000000000e-03
-1.0000000000000000e-03 1.0000000000000000e-03
ITEM: ATOMS id x y z vx vy vz
1 1.21669e-05 -3.1826e-05 -2.56924e-05 310.083 -799.088 112.372
2 -9.34221e-06 2.04022e-06 9.82667e-05 -229.154 49.9109 -319.053
3 8.24682e-05 6.19711e-05 0.000587926 2032.34 1527.27 -1944.69
4 -5.41653e-06 3.79429e-05 -0.000148458 -134.065 947.939 482.958
5 7.50094e-05 -5.07315e-05 -6.84655e-05 1859.07 -1255.54 203.765
6 -3.43662e-06 1.65668e-05 -6.16307e-05 -77.0041 426.686 207.768
7 -2.2628e-05 -5.8482e-06 -4.10906e-05 -585.573 -151.848 137.239
8 0.000168511 0.000198083 -0.000516105 4151.72 4880.37 1706.5
9 -9.37182e-05 -0.000114498 -0.00048641 -2309.54 -2821.16 1609.09
10 -9.72361e-05 -0.000186236 -7.756e-05 -2397.35 -4591.37 249.879
ITEM: TIMESTEP
230
ITEM: NUMBER OF ATOMS
10
ITEM: BOX BOUNDS mm mm mm
-1.0000000000000000e-03 1.0000000000000000e-03
-1.0000000000000000e-03 1.0000000000000000e-03
-1.0000000000000000e-03 1.0000000000000000e-03
ITEM: ATOMS id x y z vx vy vz
1 3.09128e-05 -7.98705e-05 -1.33172e-05 26.2517 -62.9741 132.875
2 -2.30003e-05 5.014e-06 6.18711e-05 -15.9307 3.4513 -402.424
3 0.000203797 0.000153149 0.000366565 144.821 108.854 -2443.48
4 -1.34334e-05 9.48252e-05 -9.33742e-05 -9.78963 72.7932 609.016
5 0.000186235 -0.000125808 -4.49217e-05 136.749 -91.6213 262.974
6 -7.85381e-06 4.24662e-05 -3.80518e-05 -2.30417 37.9134 259.743
7 -5.82263e-05 -1.50932e-05 -2.5481e-05 -53.0814 -14.0263 172.116
8 0.000416342 0.000489411 -0.000321846 295.428 347.297 2144.41
9 -0.000231595 -0.000282907 -0.000303252 -164.565 -200.83 2021.74
10 -0.00024038 -0.000460378 -4.90128e-05 -171.264 -327.898 316.031
ITEM: TIMESTEP
240
ITEM: NUMBER OF ATOMS
10
ITEM: BOX BOUNDS mm mm mm
-1.0000000000000000e-03 1.0000000000000000e-03
-1.0000000000000000e-03 1.0000000000000000e-03
-1.0000000000000000e-03 1.0000000000000000e-03
ITEM: ATOMS id x y z vx vy vz
1 1.6447e-05 -4.20934e-05 4.28213e-07 -285.772 740.748 139.61
2 -1.19381e-05 2.60245e-06 1.91646e-05 214.453 -46.7311 -443.905
3 0.000106077 7.97166e-05 0.000107545 -1898.32 -1426.53 -2691.18
4 -7.01276e-06 4.98202e-05 -2.8731e-05 124.993 -880.151 672.315
5 9.73009e-05 -6.5667e-05 -1.67652e-05 -1732.56 1170.77 295.18
6 -3.81062e-06 2.27415e-05 -1.05656e-05 74.9448 -391.818 285.095
7 -3.12843e-05 -8.13821e-06 -7.26195e-06 536.331 138.711 188.944
8 0.00021667 0.000254697 -9.45203e-05 -3878.39 -4559.05 2361.99
9 -0.000120545 -0.000147236 -8.89419e-05 2157.27 2635.35 2226.64
10 -0.000125154 -0.000239688 -1.54287e-05 2238.91 4288 349.733
ITEM: TIMESTEP
250
ITEM: NUMBER OF ATOMS
10
ITEM: BOX BOUNDS mm mm mm
-1.0000000000000000e-03 1.0000000000000000e-03
-1.0000000000000000e-03 1.0000000000000000e-03
-1.0000000000000000e-03 1.0000000000000000e-03
ITEM: ATOMS id x y z vx vy vz
1 -1.5343e-05 4.01287e-05 1.61413e-05 -285.776 736.751 172.036
2 1.05526e-05 -1.99286e-06 -2.94055e-05 188.846 -34.9579 -521.962
3 -0.000105601 -7.93558e-05 -0.000162586 -1900.44 -1428.18 -2664
4 5.7982e-06 -4.74235e-05 4.33588e-05 105.05 -868.565 758.982
5 -9.4325e-05 6.41707e-05 1.50532e-05 -1707 1159.61 335.655
6 6.90644e-06 -1.95503e-05 1.57697e-05 115.711 -369.916 237.284
7 2.05302e-05 8.31647e-06 1.063e-05 397.347 159.645 166.019
8 -0.000214725 -0.000252424 0.000144634 -3862.79 -4541.04 2378.94
9 0.000118894 0.000145355 0.000132651 2139.53 2615.08 2166.33
10 0.00013103 0.000235702 1.83e-05 2358.29 4242.96 318.829
ITEM: TIMESTEP
260
ITEM: NUMBER OF ATOMS
10
ITEM: BOX BOUNDS mm mm mm
-1.0000000000000000e-03 1.0000000000000000e-03
-1.0000000000000000e-03 1.0000000000000000e-03
-1.0000000000000000e-03 1.0000000000000000e-03
ITEM: ATOMS id x y z vx vy vz
1 -3.04036e-05 7.86372e-05 3.22287e-05 15.5877 -45.8578 146.845
2 2.02753e-05 -3.77421e-06 -7.92489e-05 -14.3854 3.00621 -465.896
3 -0.000203749 -0.000153116 -0.000416105 139.265 104.619 -2361.64
4 1.12438e-05 -9.27599e-05 0.000115767 -7.32828 55.1931 676.28
5 -0.000182775 0.000124206 4.72752e-05 119.868 -82.351 303.098
6 1.26146e-05 -3.92246e-05 3.8288e-05 -13.2299 17.0051 209.089
7 4.19178e-05 1.68893e-05 2.64108e-05 -13.7231 -5.96416 146.766
8 -0.00041417 -0.000486891 0.000371052 283.892 333.707 2109.46
9 0.000229386 0.000280385 0.000338787 -156.852 -192.06 1920.01
10 0.000252829 0.000454863 4.8699e-05 -172.696 -310.303 283.794
ITEM: TIMESTEP
270
ITEM: NUMBER OF ATOMS
10
ITEM: BOX BOUNDS mm mm mm
-1.0000000000000000e-03 1.0000000000000000e-03
-1.0000000000000000e-03 1.0000000000000000e-03
-1.0000000000000000e-03 1.0000000000000000e-03
ITEM: ATOMS id x y z vx vy vz
1 -1.28016e-05 3.26521e-05 4.50085e-05 300.201 -779.213 106.472
2 8.20739e-06 -1.50224e-06 -0.000120988 -202.167 37.7635 -361.498
3 -8.28987e-05 -6.2301e-05 -0.000626876 2029.31 1524.99 -1816.59
4 4.60407e-06 -3.84181e-05 0.000176308 -111.813 919.948 523.878
5 -7.47853e-05 5.07463e-05 7.46419e-05 1817.88 -1235.81 239.426
6 4.75007e-06 -1.67817e-05 5.68782e-05 -127.93 385.531 159.532
7 1.82922e-05 7.33985e-06 3.94756e-05 -410.076 -165.362 112.101
8 -0.000168447 -0.000198025 0.000559347 4125.45 4849.78 1623.23
9 9.33246e-05 0.000114046 0.00051012 -2284.67 -2792.78 1476.4
10 0.000102878 0.000185119 7.40935e-05 -2518.06 -4530.05 219.618
ITEM: TIMESTEP
280
ITEM: NUMBER OF ATOMS
10
ITEM: BOX BOUNDS mm mm mm
-1.0000000000000000e-03 1.0000000000000000e-03
-1.0000000000000000e-03 1.0000000000000000e-03
-1.0000000000000000e-03 1.0000000000000000e-03
ITEM: ATOMS id x y z vx vy vz
1 1.84757e-05 -4.84266e-05 5.3412e-05 262.055 -676.53 59.2792
2 -1.26813e-05 2.38282e-06 -0.000150317 -172.669 31.9605 -219.904
3 0.000127055 9.54778e-05 -0.000773242 1738.16 1306.24 -1084.89
4 -6.98349e-06 5.7209e-05 0.000218765 -96.1266 796.062 317.723
5 0.000113634 -7.71886e-05 9.44318e-05 1563.27 -1060.27 152.573
6 -8.23822e-06 2.36289e-05 6.97918e-05 -105.064 340.661 96.0688
7 -2.48719e-05 -1.00325e-05 4.79395e-05 -365.818 -146.378 57.3361
8 0.000258331 0.000303687 0.000690179 3532.79 4153.1 970.304
9 -0.000143046 -0.000174875 0.000629041 -1956.84 -2391.71 881.049
10 -0.00015772 -0.000283657 9.19006e-05 -2158 -3881.71 133.289
ITEM: TIMESTEP
290
ITEM: NUMBER OF ATOMS
10
ITEM: BOX BOUNDS mm mm mm
-1.0000000000000000e-03 1.0000000000000000e-03
-1.0000000000000000e-03 1.0000000000000000e-03
-1.0000000000000000e-03 1.0000000000000000e-03
ITEM: ATOMS id x y z vx vy vz
1 2.99143e-05 -7.75565e-05 5.64936e-05 -56.8269 153.857 1.81487
2 -1.99402e-05 3.70792e-06 -0.000164217 42.4145 -8.18301 -55.6378
3 0.000200444 0.000150633 -0.000840163 -421.244 -316.523 -241.72
4 -1.10658e-05 9.1351e-05 0.000238765 22.8743 -183.41 78.7364
5 0.000179988 -0.000122128 0.00010458 -372.612 253.877 48.5998
6 -1.23682e-05 3.87218e-05 7.56603e-05 30.9405 -69.9073 20.2242
7 -4.13417e-05 -1.6582e-05 5.11003e-05 70.3382 28.8746 5.36945
8 0.000407443 0.000478983 0.000750103 -857.079 -1007.53 217.604
9 -0.000225665 -0.000275833 0.000683333 474.298 580.088 195.207
10 -0.000248849 -0.000447599 0.000100282 522.746 939.896 32.8519
ITEM: TIMESTEP
300
ITEM: NUMBER OF ATOMS
10
ITEM: BOX BOUNDS mm mm mm
-1.0000000000000000e-03 1.0000000000000000e-03
-1.0000000000000000e-03 1.0000000000000000e-03
-1.0000000000000000e-03 1.0000000000000000e-03
ITEM: ATOMS id x y z vx vy vz
1 9.21535e-06 -2.33499e-05 5.37675e-05 -314.447 818.658 -55.903
2 -5.76715e-06 1.04887e-06 -0.000161256 211.911 -39.5317 114.343
3 5.83864e-05 4.38804e-05 -0.000820763 -2127.87 -1599.07 626.287
4 -3.25478e-06 2.73107e-05 0.000234245 117.286 -965.746 -168.325
5 5.28954e-05 -3.58041e-05 0.000103987 -1907.91 1295.11 -60.3064
6 -3.19376e-06 1.22385e-05 7.37721e-05 133.7 -405.119 -57.4846
7 -1.34113e-05 -5.32536e-06 4.89904e-05 430.638 173.158 -47.3798
8 0.000118616 0.000139446 0.00073296 -4325.72 -5085.21 -557.449
9 -6.57289e-05 -8.03131e-05 0.000667419 2395.63 2928.38 -510.689
10 -7.25059e-05 -0.000130443 9.83593e-05 2641.6 4751.22 -70.9542
ITEM: TIMESTEP
310
ITEM: NUMBER OF ATOMS
10
ITEM: BOX BOUNDS mm mm mm
-1.0000000000000000e-03 1.0000000000000000e-03
-1.0000000000000000e-03 1.0000000000000000e-03
-1.0000000000000000e-03 1.0000000000000000e-03
ITEM: ATOMS id x y z vx vy vz
1 -2.1348e-05 5.6055e-05 4.58981e-05 -234.786 606.079 -102.41
2 1.46045e-05 -2.73705e-06 -0.000141739 153.645 -28.4102 272.538
3 -0.000146427 -0.000110037 -0.000717037 -1547.36 -1162.86 1429.94
4 8.05417e-06 -6.60819e-05 0.000205678 85.65 -710.15 -397.991
5 -0.000131052 8.89876e-05 9.27798e-05 -1393.01 944.335 -162.223
6 9.42244e-06 -2.73613e-05 6.44538e-05 92.6445 -306.057 -127.775
7 2.88747e-05 1.15207e-05 4.12159e-05 329.121 129.729 -103.378
8 -0.000297705 -0.000349974 0.000640514 -3144.88 -3697.08 -1275.18
9 0.000164855 0.000201531 0.000582931 1742.04 2129.12 -1164.14
10 0.000181781 0.000326928 8.63518e-05 1921.39 3455.99 -167.204
ITEM: TIMESTEP
320
ITEM: NUMBER OF ATOMS
10
ITEM: BOX BOUNDS mm mm mm
-1.0000000000000000e-03 1.0000000000000000e-03
-1.0000000000000000e-03 1.0000000000000000e-03
-1.0000000000000000e-03 1.0000000000000000e-03
ITEM: ATOMS id x y z vx vy vz
1 -2.90192e-05 7.53416e-05 3.34724e-05 97.1464 -260.016 -143.903
2 1.92794e-05 -3.58267e-06 -0.000107676 -69.7556 13.2346 402.715
3 -0.000193854 -0.000145681 -0.00053964 696.322 523.243 2086.68
4 1.07071e-05 -8.84542e-05 0.000155998 -38.0467 308.687 -586.848
5 -0.000174168 0.000118136 7.2069e-05 619.345 -421.291 -248.344
6 1.19041e-05 -3.76244e-05 4.85902e-05 -48.1063 121.939 -186.725
7 4.02e-05 1.59133e-05 2.89275e-05 -125.926 -50.9144 -140.188
8 -0.000394039 -0.000463226 0.000482261 1416.22 1664.85 -1861.94
9 0.000218246 0.000266761 0.000438552 -783.977 -958.614 -1697.96
10 0.000240694 0.000432916 6.54797e-05 -864.24 -1554.11 -246.556
ITEM: TIMESTEP
330
ITEM: NUMBER OF ATOMS
10
ITEM: BOX BOUNDS mm mm mm
-1.0000000000000000e-03 1.0000000000000000e-03
-1.0000000000000000e-03 1.0000000000000000e-03
-1.0000000000000000e-03 1.0000000000000000e-03
ITEM: ATOMS id x y z vx vy vz
1 -5.51867e-06 1.36798e-05 1.76062e-05 324.195 -845.992 -170.709
2 3.23388e-06 -5.80537e-07 -6.25736e-05 -218.166 40.6236 491.265
3 -3.29179e-05 -2.47414e-05 -0.000306802 2191.56 1646.94 2528.99
4 1.85246e-06 -1.57656e-05 9.03116e-05 -120.827 995.602 -715.153
5 -3.00969e-05 2.03146e-05 4.39581e-05 1965.68 -1333.94 -308.799
6 1.57672e-06 -7.49947e-06 2.77503e-05 -137.282 418.049 -226.027
7 8.36184e-06 3.22629e-06 1.36477e-05 -444.802 -176.744 -163.167
8 -6.68424e-05 -7.85817e-05 0.000274461 4455.09 5237.3 -2257.38
9 3.70572e-05 4.52649e-05 0.000249118 -2467.32 -3015.97 -2057.26
10 4.09e-05 7.35899e-05 3.78794e-05 -2720.87 -4893.67 -300.57
ITEM: TIMESTEP
340
ITEM: NUMBER OF ATOMS
10
ITEM: BOX BOUNDS mm mm mm