LAMMPS (23 Jun 2022)
##################################################################
# LAMMPS input file generated using pylion 0.5.3
# simulation name: test
#
# pylion is written and maintained by Dimitris Trypogeorgos
# and Elliot Bentine. Download it from
# https://bitbucket.org/dtrypogeorgos/pylion
#
# If you find it useful please cite <paper>.
##################################################################



units si
atom_style charge

# Creating simulation box...
boundary m m m
region simulationDomain block -0.001  0.001 -0.001 0.001 -0.001 0.001 units box
create_box 1 simulationDomain
Created orthogonal box = (-0.001 -0.001 -0.001) to (0.001 0.001 0.001)
  1 by 1 by 1 MPI processor grid

# Configure neighbour list...
neighbor 1 nsq
neigh_modify once yes

# Configure pairwise interactions for long range Coulombics only...
pair_style coul/cut 10
pair_coeff * *

# Placing individual ions...


create_atoms 1 single 0.0001235073912070797 0.00012914548517573707 0.0005900854548374599 units box
Created 1 atoms
  using box units in orthogonal box = (-0.001 -0.001 -0.001) to (0.001 0.001 0.001)
  create_atoms CPU = 0.000 seconds

create_atoms 1 single 7.926234031869872e-05 7.750784017175236e-05 -0.00042280315278463566 units box
Created 1 atoms
  using box units in orthogonal box = (-0.001 -0.001 -0.001) to (0.001 0.001 0.001)
  create_atoms CPU = 0.000 seconds

create_atoms 1 single -0.00012763128073258042 -0.00027332570107526424 -0.0008885844845281308 units box
Created 1 atoms
  using box units in orthogonal box = (-0.001 -0.001 -0.001) to (0.001 0.001 0.001)
  create_atoms CPU = 0.000 seconds

create_atoms 1 single 7.004813787828281e-05 -8.359729242606789e-05 0.000126043521621616 units box
Created 1 atoms
  using box units in orthogonal box = (-0.001 -0.001 -0.001) to (0.001 0.001 0.001)
  create_atoms CPU = 0.000 seconds

create_atoms 1 single 8.237828819994239e-05 0.000263256040038632 -0.0005417258832836015 units box
Created 1 atoms
  using box units in orthogonal box = (-0.001 -0.001 -0.001) to (0.001 0.001 0.001)
  create_atoms CPU = 0.000 seconds

create_atoms 1 single -2.7077832930227517e-06 -5.229237549601992e-06 4.53183908299068e-05 units box
Created 1 atoms
  using box units in orthogonal box = (-0.001 -0.001 -0.001) to (0.001 0.001 0.001)
  create_atoms CPU = 0.000 seconds

create_atoms 1 single 0.00026081014885402616 0.0001379373783257524 0.0004492385022642461 units box
Created 1 atoms
  using box units in orthogonal box = (-0.001 -0.001 -0.001) to (0.001 0.001 0.001)
  create_atoms CPU = 0.000 seconds

create_atoms 1 single 0.0001387819611148775 1.833176470758798e-05 0.00017397553320751475 units box
Created 1 atoms
  using box units in orthogonal box = (-0.001 -0.001 -0.001) to (0.001 0.001 0.001)
  create_atoms CPU = 0.000 seconds

create_atoms 1 single 0.0005772949475555923 0.0004982005957493874 8.77164740322512e-06 units box
Created 1 atoms
  using box units in orthogonal box = (-0.001 -0.001 -0.001) to (0.001 0.001 0.001)
  create_atoms CPU = 0.000 seconds

create_atoms 1 single 4.82685813256615e-05 -5.98789343424066e-06 0.000535968999701007 units box
Created 1 atoms
  using box units in orthogonal box = (-0.001 -0.001 -0.001) to (0.001 0.001 0.001)
  create_atoms CPU = 0.000 seconds


# Species...
mass 1 1.4944851e-26
set type 1 charge 1.6021764599999998e-19
Setting atom values ...
  10 settings made for charge
group 1 type 1
10 atoms in group 1



# Configuring additional output to flush buffer during simulation...
thermo 10000
thermo_style custom step cpu
thermo_modify flush yes

# Time integration...

group nonRigidBody union all
10 atoms in group nonRigidBody

fix timeIntegrator nonRigidBody nve



dump 9926225791 all custom 10 /Users/michaelmitchell/qlicS/data/2024-07-15_12-53-35/positions.txt id x y z vx vy vz





# Pseudopotential approximation for Linear Paul trap... (fixID=9926356652)


# SHO

variable k_x9926356652		equal 2.973789e-13

variable k_y9926356652		equal 2.973789e-13

variable k_z9926356652		equal 4.835556e-14

variable fX9926356652 atom "-v_k_x9926356652 * x"

variable fY9926356652 atom "-v_k_y9926356652 * y"

variable fZ9926356652 atom "-v_k_z9926356652 * z"

variable E9926356652 atom "v_k_x9926356652 * x * x /         2 + v_k_y9926356652 * y * y / 2 + v_k_z9926356652 * z * z / 2"

fix 9926356652 1 addforce         v_fX9926356652 v_fY9926356652 v_fZ9926356652 energy v_E9926356652




variable coolx atom (9.269386030594033e-20+(2.703426035144626e-21*vx))*-0.5000000000000001
variable cooly atom (9.269386030594033e-20+2.703426035144626e-21*vy)*-0.5000000000000001
variable coolz atom (9.269386030594033e-20+2.703426035144626e-21*vz)*-0.7071067811865476
fix 569202603907002 1 addforce v_coolx v_cooly v_coolz



timestep 1e-07


# Run simulation

run 50000
Generated 0 of 0 mixed pair_coeff terms from geometric mixing rule
Neighbor list info ...
  update every 1 steps, delay 10 steps, check yes
  max neighbors/atom: 2000, page size: 100000
  master list distance cutoff = 11
  ghost atom cutoff = 11
  1 neighbor lists, perpetual/occasional/extra = 1 0 0
  (1) pair coul/cut, perpetual
      attributes: half, newton on
      pair build: half/nsq/newton
      stencil: none
      bin: none
WARNING: Proc sub-domain size < neighbor skin, could lead to lost atoms (src/domain.cpp:970)
Per MPI rank memory allocation (min/avg/max) = 5.28 | 5.28 | 5.28 Mbytes
   Step          CPU      
         0   0            
     10000   0.38359441   
     20000   0.77129896   
     30000   1.1509285    
     40000   1.5409513    
     50000   1.9549951    
Loop time of 1.95502 on 1 procs for 50000 steps with 10 atoms

97.3% CPU use with 1 MPI tasks x no OpenMP threads

MPI task timing breakdown:
Section |  min time  |  avg time  |  max time  |%varavg| %total
---------------------------------------------------------------
Pair    | 0.037822   | 0.037822   | 0.037822   |   0.0 |  1.93
Neigh   | 0          | 0          | 0          |   0.0 |  0.00
Comm    | 0.0073558  | 0.0073558  | 0.0073558  |   0.0 |  0.38
Output  | 0.14553    | 0.14553    | 0.14553    |   0.0 |  7.44
Modify  | 1.7512     | 1.7512     | 1.7512     |   0.0 | 89.57
Other   |            | 0.0131     |            |       |  0.67

Nlocal:             10 ave          10 max          10 min
Histogram: 1 0 0 0 0 0 0 0 0 0
Nghost:              0 ave           0 max           0 min
Histogram: 1 0 0 0 0 0 0 0 0 0
Neighs:             45 ave          45 max          45 min
Histogram: 1 0 0 0 0 0 0 0 0 0

Total # of neighbors = 45
Ave neighs/atom = 4.5
Neighbor list builds = 0
Dangerous builds = 0





# Deleting a fix by uid

unfix 569202603907002




variable E equal 0
variable Ex atom (1*(1+0*(x-0)+0*(x-0)^2+0*(y-0)+0*(y-0)^2+0*(z-0)+0*(z-0)^2))*cos((2*3.141592653589793)*0.005*step)
variable B equal 0
variable Ey atom (1*(0+0*(x-0)+0*(x-0)^2+0.0*(y-0)+0.0*(y-0)^2+0*(z-0)+0*(z-0)^2))*cos((2*3.141592653589793)*0.005*step)
variable C equal 0
variable Ez atom (1*(0+0*(x-0)+0*(x-0)^2+0*(y-0)+0*(y-0)^2+0*(z-0)+0*(z-0)^2))*cos((2*3.141592653589793)*0.005*step)
fix 469202603907007 all efield v_Ex v_Ey v_Ez



timestep 1e-08


# Run simulation

run 10000
Generated 0 of 0 mixed pair_coeff terms from geometric mixing rule
WARNING: Proc sub-domain size < neighbor skin, could lead to lost atoms (src/domain.cpp:970)
Per MPI rank memory allocation (min/avg/max) = 5.28 | 5.28 | 5.28 Mbytes
   Step          CPU      
     50000   0            
     60000   1.0549801    
Loop time of 1.055 on 1 procs for 10000 steps with 10 atoms

94.7% CPU use with 1 MPI tasks x no OpenMP threads

MPI task timing breakdown:
Section |  min time  |  avg time  |  max time  |%varavg| %total
---------------------------------------------------------------
Pair    | 0.0086116  | 0.0086116  | 0.0086116  |   0.0 |  0.82
Neigh   | 0          | 0          | 0          |   0.0 |  0.00
Comm    | 0.0019573  | 0.0019573  | 0.0019573  |   0.0 |  0.19
Output  | 0.043573   | 0.043573   | 0.043573   |   0.0 |  4.13
Modify  | 0.99708    | 0.99708    | 0.99708    |   0.0 | 94.51
Other   |            | 0.003778   |            |       |  0.36

Nlocal:             10 ave          10 max          10 min
Histogram: 1 0 0 0 0 0 0 0 0 0
Nghost:              0 ave           0 max           0 min
Histogram: 1 0 0 0 0 0 0 0 0 0
Neighs:             45 ave          45 max          45 min
Histogram: 1 0 0 0 0 0 0 0 0 0

Total # of neighbors = 45
Ave neighs/atom = 4.5
Neighbor list builds = 0
Dangerous builds = 0





# Deleting a fix by uid

unfix 469202603907007




timestep 1e-07


# Run simulation

run 1000
Generated 0 of 0 mixed pair_coeff terms from geometric mixing rule
WARNING: Proc sub-domain size < neighbor skin, could lead to lost atoms (src/domain.cpp:970)
Per MPI rank memory allocation (min/avg/max) = 4.78 | 4.78 | 4.78 Mbytes
   Step          CPU      
     60000   0            
     61000   0.027245269  
Loop time of 0.0272627 on 1 procs for 1000 steps with 10 atoms

93.8% CPU use with 1 MPI tasks x no OpenMP threads

MPI task timing breakdown:
Section |  min time  |  avg time  |  max time  |%varavg| %total
---------------------------------------------------------------
Pair    | 0.00078224 | 0.00078224 | 0.00078224 |   0.0 |  2.87
Neigh   | 0          | 0          | 0          |   0.0 |  0.00
Comm    | 0.00015162 | 0.00015162 | 0.00015162 |   0.0 |  0.56
Output  | 0.0032537  | 0.0032537  | 0.0032537  |   0.0 | 11.93
Modify  | 0.022784   | 0.022784   | 0.022784   |   0.0 | 83.57
Other   |            | 0.0002907  |            |       |  1.07

Nlocal:             10 ave          10 max          10 min
Histogram: 1 0 0 0 0 0 0 0 0 0
Nghost:              0 ave           0 max           0 min
Histogram: 1 0 0 0 0 0 0 0 0 0
Neighs:             45 ave          45 max          45 min
Histogram: 1 0 0 0 0 0 0 0 0 0

Total # of neighbors = 45
Ave neighs/atom = 4.5
Neighbor list builds = 0
Dangerous builds = 0




variable coolx atom (9.269386030594033e-20+(2.703426035144626e-21*vx))*-0.5000000000000001
variable cooly atom (9.269386030594033e-20+2.703426035144626e-21*vy)*-0.5000000000000001
variable coolz atom (9.269386030594033e-20+2.703426035144626e-21*vz)*-0.7071067811865476
fix 569202603907003 1 addforce v_coolx v_cooly v_coolz



timestep 1e-07


# Run simulation

run 10000
Generated 0 of 0 mixed pair_coeff terms from geometric mixing rule
WARNING: Proc sub-domain size < neighbor skin, could lead to lost atoms (src/domain.cpp:970)
Per MPI rank memory allocation (min/avg/max) = 5.28 | 5.28 | 5.28 Mbytes
   Step          CPU      
     61000   0            
     70000   0.36110295   
     71000   0.39912975   
Loop time of 0.399147 on 1 procs for 10000 steps with 10 atoms

96.8% CPU use with 1 MPI tasks x no OpenMP threads

MPI task timing breakdown:
Section |  min time  |  avg time  |  max time  |%varavg| %total
---------------------------------------------------------------
Pair    | 0.0077091  | 0.0077091  | 0.0077091  |   0.0 |  1.93
Neigh   | 0          | 0          | 0          |   0.0 |  0.00
Comm    | 0.0015034  | 0.0015034  | 0.0015034  |   0.0 |  0.38
Output  | 0.02946    | 0.02946    | 0.02946    |   0.0 |  7.38
Modify  | 0.3578     | 0.3578     | 0.3578     |   0.0 | 89.64
Other   |            | 0.002679   |            |       |  0.67

Nlocal:             10 ave          10 max          10 min
Histogram: 1 0 0 0 0 0 0 0 0 0
Nghost:              0 ave           0 max           0 min
Histogram: 1 0 0 0 0 0 0 0 0 0
Neighs:             45 ave          45 max          45 min
Histogram: 1 0 0 0 0 0 0 0 0 0

Total # of neighbors = 45
Ave neighs/atom = 4.5
Neighbor list builds = 0
Dangerous builds = 0





# Deleting a fix by uid

unfix 569202603907003




variable E equal 0
variable Ex atom (1*(1+0*(x-0)+0*(x-0)^2+0*(y-0)+0*(y-0)^2+0*(z-0)+0*(z-0)^2))*cos((2*3.141592653589793)*0.006*step)
variable B equal 0
variable Ey atom (1*(0+0*(x-0)+0*(x-0)^2+0.0*(y-0)+0.0*(y-0)^2+0*(z-0)+0*(z-0)^2))*cos((2*3.141592653589793)*0.006*step)
variable C equal 0
variable Ez atom (1*(0+0*(x-0)+0*(x-0)^2+0*(y-0)+0*(y-0)^2+0*(z-0)+0*(z-0)^2))*cos((2*3.141592653589793)*0.006*step)
fix 469202603907008 all efield v_Ex v_Ey v_Ez



timestep 1e-08


# Run simulation

run 10000
Generated 0 of 0 mixed pair_coeff terms from geometric mixing rule
WARNING: Proc sub-domain size < neighbor skin, could lead to lost atoms (src/domain.cpp:970)
Per MPI rank memory allocation (min/avg/max) = 5.28 | 5.28 | 5.28 Mbytes
   Step          CPU      
     71000   0            
     80000   1.0184215    
     81000   1.1413047    
Loop time of 1.14132 on 1 procs for 10000 steps with 10 atoms

92.8% CPU use with 1 MPI tasks x no OpenMP threads

MPI task timing breakdown:
Section |  min time  |  avg time  |  max time  |%varavg| %total
---------------------------------------------------------------
Pair    | 0.0097165  | 0.0097165  | 0.0097165  |   0.0 |  0.85
Neigh   | 0          | 0          | 0          |   0.0 |  0.00
Comm    | 0.0022318  | 0.0022318  | 0.0022318  |   0.0 |  0.20
Output  | 0.05111    | 0.05111    | 0.05111    |   0.0 |  4.48
Modify  | 1.0741     | 1.0741     | 1.0741     |   0.0 | 94.11
Other   |            | 0.004175   |            |       |  0.37

Nlocal:             10 ave          10 max          10 min
Histogram: 1 0 0 0 0 0 0 0 0 0
Nghost:              0 ave           0 max           0 min
Histogram: 1 0 0 0 0 0 0 0 0 0
Neighs:             45 ave          45 max          45 min
Histogram: 1 0 0 0 0 0 0 0 0 0

Total # of neighbors = 45
Ave neighs/atom = 4.5
Neighbor list builds = 0
Dangerous builds = 0





# Deleting a fix by uid

unfix 469202603907008




timestep 1e-07


# Run simulation

run 1000
Generated 0 of 0 mixed pair_coeff terms from geometric mixing rule
WARNING: Proc sub-domain size < neighbor skin, could lead to lost atoms (src/domain.cpp:970)
Per MPI rank memory allocation (min/avg/max) = 4.78 | 4.78 | 4.78 Mbytes
   Step          CPU      
     81000   0            
     82000   0.028287723  
Loop time of 0.0283053 on 1 procs for 1000 steps with 10 atoms

92.1% CPU use with 1 MPI tasks x no OpenMP threads

MPI task timing breakdown:
Section |  min time  |  avg time  |  max time  |%varavg| %total
---------------------------------------------------------------
Pair    | 0.00079454 | 0.00079454 | 0.00079454 |   0.0 |  2.81
Neigh   | 0          | 0          | 0          |   0.0 |  0.00
Comm    | 0.00015937 | 0.00015937 | 0.00015937 |   0.0 |  0.56
Output  | 0.0034689  | 0.0034689  | 0.0034689  |   0.0 | 12.26
Modify  | 0.023592   | 0.023592   | 0.023592   |   0.0 | 83.35
Other   |            | 0.0002905  |            |       |  1.03

Nlocal:             10 ave          10 max          10 min
Histogram: 1 0 0 0 0 0 0 0 0 0
Nghost:              0 ave           0 max           0 min
Histogram: 1 0 0 0 0 0 0 0 0 0
Neighs:             45 ave          45 max          45 min
Histogram: 1 0 0 0 0 0 0 0 0 0

Total # of neighbors = 45
Ave neighs/atom = 4.5
Neighbor list builds = 0
Dangerous builds = 0




variable coolx atom (9.269386030594033e-20+(2.703426035144626e-21*vx))*-0.5000000000000001
variable cooly atom (9.269386030594033e-20+2.703426035144626e-21*vy)*-0.5000000000000001
variable coolz atom (9.269386030594033e-20+2.703426035144626e-21*vz)*-0.7071067811865476
fix 569202603907004 1 addforce v_coolx v_cooly v_coolz



timestep 1e-07


# Run simulation

run 10000
Generated 0 of 0 mixed pair_coeff terms from geometric mixing rule
WARNING: Proc sub-domain size < neighbor skin, could lead to lost atoms (src/domain.cpp:970)
Per MPI rank memory allocation (min/avg/max) = 5.28 | 5.28 | 5.28 Mbytes
   Step          CPU      
     82000   0            
     90000   0.43021238   
     92000   0.54806154   
Loop time of 0.548079 on 1 procs for 10000 steps with 10 atoms

88.8% CPU use with 1 MPI tasks x no OpenMP threads

MPI task timing breakdown:
Section |  min time  |  avg time  |  max time  |%varavg| %total
---------------------------------------------------------------
Pair    | 0.010364   | 0.010364   | 0.010364   |   0.0 |  1.89
Neigh   | 0          | 0          | 0          |   0.0 |  0.00
Comm    | 0.0020843  | 0.0020843  | 0.0020843  |   0.0 |  0.38
Output  | 0.058154   | 0.058154   | 0.058154   |   0.0 | 10.61
Modify  | 0.47325    | 0.47325    | 0.47325    |   0.0 | 86.35
Other   |            | 0.004225   |            |       |  0.77

Nlocal:             10 ave          10 max          10 min
Histogram: 1 0 0 0 0 0 0 0 0 0
Nghost:              0 ave           0 max           0 min
Histogram: 1 0 0 0 0 0 0 0 0 0
Neighs:             45 ave          45 max          45 min
Histogram: 1 0 0 0 0 0 0 0 0 0

Total # of neighbors = 45
Ave neighs/atom = 4.5
Neighbor list builds = 0
Dangerous builds = 0





# Deleting a fix by uid

unfix 569202603907004




variable E equal 0
variable Ex atom (1*(1+0*(x-0)+0*(x-0)^2+0*(y-0)+0*(y-0)^2+0*(z-0)+0*(z-0)^2))*cos((2*3.141592653589793)*0.007*step)
variable B equal 0
variable Ey atom (1*(0+0*(x-0)+0*(x-0)^2+0.0*(y-0)+0.0*(y-0)^2+0*(z-0)+0*(z-0)^2))*cos((2*3.141592653589793)*0.007*step)
variable C equal 0
variable Ez atom (1*(0+0*(x-0)+0*(x-0)^2+0*(y-0)+0*(y-0)^2+0*(z-0)+0*(z-0)^2))*cos((2*3.141592653589793)*0.007*step)
fix 469202603907009 all efield v_Ex v_Ey v_Ez



timestep 1e-08


# Run simulation

run 10000
Generated 0 of 0 mixed pair_coeff terms from geometric mixing rule
WARNING: Proc sub-domain size < neighbor skin, could lead to lost atoms (src/domain.cpp:970)
Per MPI rank memory allocation (min/avg/max) = 5.28 | 5.28 | 5.28 Mbytes
   Step          CPU      
     92000   0            
    100000   0.79653364   
    102000   0.98040333   
Loop time of 0.98042 on 1 procs for 10000 steps with 10 atoms

96.9% CPU use with 1 MPI tasks x no OpenMP threads

MPI task timing breakdown:
Section |  min time  |  avg time  |  max time  |%varavg| %total
---------------------------------------------------------------
Pair    | 0.0079574  | 0.0079574  | 0.0079574  |   0.0 |  0.81
Neigh   | 0          | 0          | 0          |   0.0 |  0.00
Comm    | 0.001657   | 0.001657   | 0.001657   |   0.0 |  0.17
Output  | 0.035355   | 0.035355   | 0.035355   |   0.0 |  3.61
Modify  | 0.93218    | 0.93218    | 0.93218    |   0.0 | 95.08
Other   |            | 0.003274   |            |       |  0.33

Nlocal:             10 ave          10 max          10 min
Histogram: 1 0 0 0 0 0 0 0 0 0
Nghost:              0 ave           0 max           0 min
Histogram: 1 0 0 0 0 0 0 0 0 0
Neighs:             45 ave          45 max          45 min
Histogram: 1 0 0 0 0 0 0 0 0 0

Total # of neighbors = 45
Ave neighs/atom = 4.5
Neighbor list builds = 0
Dangerous builds = 0





# Deleting a fix by uid

unfix 469202603907009




timestep 1e-07


# Run simulation

run 1000
Generated 0 of 0 mixed pair_coeff terms from geometric mixing rule
WARNING: Proc sub-domain size < neighbor skin, could lead to lost atoms (src/domain.cpp:970)
Per MPI rank memory allocation (min/avg/max) = 4.78 | 4.78 | 4.78 Mbytes
   Step          CPU      
    102000   0            
    103000   0.024772215  
Loop time of 0.0247873 on 1 procs for 1000 steps with 10 atoms

97.9% CPU use with 1 MPI tasks x no OpenMP threads

MPI task timing breakdown:
Section |  min time  |  avg time  |  max time  |%varavg| %total
---------------------------------------------------------------
Pair    | 0.00072763 | 0.00072763 | 0.00072763 |   0.0 |  2.94
Neigh   | 0          | 0          | 0          |   0.0 |  0.00
Comm    | 0.00013878 | 0.00013878 | 0.00013878 |   0.0 |  0.56
Output  | 0.0024934  | 0.0024934  | 0.0024934  |   0.0 | 10.06
Modify  | 0.021184   | 0.021184   | 0.021184   |   0.0 | 85.46
Other   |            | 0.0002435  |            |       |  0.98

Nlocal:             10 ave          10 max          10 min
Histogram: 1 0 0 0 0 0 0 0 0 0
Nghost:              0 ave           0 max           0 min
Histogram: 1 0 0 0 0 0 0 0 0 0
Neighs:             45 ave          45 max          45 min
Histogram: 1 0 0 0 0 0 0 0 0 0

Total # of neighbors = 45
Ave neighs/atom = 4.5
Neighbor list builds = 0
Dangerous builds = 0




variable coolx atom (9.269386030594033e-20+(2.703426035144626e-21*vx))*-0.5000000000000001
variable cooly atom (9.269386030594033e-20+2.703426035144626e-21*vy)*-0.5000000000000001
variable coolz atom (9.269386030594033e-20+2.703426035144626e-21*vz)*-0.7071067811865476
fix 569202603907005 1 addforce v_coolx v_cooly v_coolz



timestep 1e-07


# Run simulation

run 10000
Generated 0 of 0 mixed pair_coeff terms from geometric mixing rule
WARNING: Proc sub-domain size < neighbor skin, could lead to lost atoms (src/domain.cpp:970)
Per MPI rank memory allocation (min/avg/max) = 5.28 | 5.28 | 5.28 Mbytes
   Step          CPU      
    103000   0            
    110000   0.29428011   
    113000   0.41988942   
Loop time of 0.419907 on 1 procs for 10000 steps with 10 atoms

95.1% CPU use with 1 MPI tasks x no OpenMP threads

MPI task timing breakdown:
Section |  min time  |  avg time  |  max time  |%varavg| %total
---------------------------------------------------------------
Pair    | 0.0079307  | 0.0079307  | 0.0079307  |   0.0 |  1.89
Neigh   | 0          | 0          | 0          |   0.0 |  0.00
Comm    | 0.0015475  | 0.0015475  | 0.0015475  |   0.0 |  0.37
Output  | 0.032849   | 0.032849   | 0.032849   |   0.0 |  7.82
Modify  | 0.37461    | 0.37461    | 0.37461    |   0.0 | 89.21
Other   |            | 0.002967   |            |       |  0.71

Nlocal:             10 ave          10 max          10 min
Histogram: 1 0 0 0 0 0 0 0 0 0
Nghost:              0 ave           0 max           0 min
Histogram: 1 0 0 0 0 0 0 0 0 0
Neighs:             45 ave          45 max          45 min
Histogram: 1 0 0 0 0 0 0 0 0 0

Total # of neighbors = 45
Ave neighs/atom = 4.5
Neighbor list builds = 0
Dangerous builds = 0





# Deleting a fix by uid

unfix 569202603907005




variable E equal 0
variable Ex atom (1*(1+0*(x-0)+0*(x-0)^2+0*(y-0)+0*(y-0)^2+0*(z-0)+0*(z-0)^2))*cos((2*3.141592653589793)*0.00705*step)
variable B equal 0
variable Ey atom (1*(0+0*(x-0)+0*(x-0)^2+0.0*(y-0)+0.0*(y-0)^2+0*(z-0)+0*(z-0)^2))*cos((2*3.141592653589793)*0.00705*step)
variable C equal 0
variable Ez atom (1*(0+0*(x-0)+0*(x-0)^2+0*(y-0)+0*(y-0)^2+0*(z-0)+0*(z-0)^2))*cos((2*3.141592653589793)*0.00705*step)
fix 469202603907010 all efield v_Ex v_Ey v_Ez



timestep 1e-08


# Run simulation

run 10000
Generated 0 of 0 mixed pair_coeff terms from geometric mixing rule
WARNING: Proc sub-domain size < neighbor skin, could lead to lost atoms (src/domain.cpp:970)
Per MPI rank memory allocation (min/avg/max) = 5.28 | 5.28 | 5.28 Mbytes
   Step          CPU      
    113000   0            
    120000   0.80554131   
    123000   1.114877     
Loop time of 1.11489 on 1 procs for 10000 steps with 10 atoms

91.5% CPU use with 1 MPI tasks x no OpenMP threads

MPI task timing breakdown:
Section |  min time  |  avg time  |  max time  |%varavg| %total
---------------------------------------------------------------
Pair    | 0.008885   | 0.008885   | 0.008885   |   0.0 |  0.80
Neigh   | 0          | 0          | 0          |   0.0 |  0.00
Comm    | 0.0020098  | 0.0020098  | 0.0020098  |   0.0 |  0.18
Output  | 0.079453   | 0.079453   | 0.079453   |   0.0 |  7.13
Modify  | 1.0208     | 1.0208     | 1.0208     |   0.0 | 91.56
Other   |            | 0.003746   |            |       |  0.34

Nlocal:             10 ave          10 max          10 min
Histogram: 1 0 0 0 0 0 0 0 0 0
Nghost:              0 ave           0 max           0 min
Histogram: 1 0 0 0 0 0 0 0 0 0
Neighs:             45 ave          45 max          45 min
Histogram: 1 0 0 0 0 0 0 0 0 0

Total # of neighbors = 45
Ave neighs/atom = 4.5
Neighbor list builds = 0
Dangerous builds = 0





# Deleting a fix by uid

unfix 469202603907010




timestep 1e-07


# Run simulation

run 1000
Generated 0 of 0 mixed pair_coeff terms from geometric mixing rule
WARNING: Proc sub-domain size < neighbor skin, could lead to lost atoms (src/domain.cpp:970)
Per MPI rank memory allocation (min/avg/max) = 4.78 | 4.78 | 4.78 Mbytes
   Step          CPU      
    123000   0            
    124000   0.024993352  
Loop time of 0.0250083 on 1 procs for 1000 steps with 10 atoms

97.6% CPU use with 1 MPI tasks x no OpenMP threads

MPI task timing breakdown:
Section |  min time  |  avg time  |  max time  |%varavg| %total
---------------------------------------------------------------
Pair    | 0.00074825 | 0.00074825 | 0.00074825 |   0.0 |  2.99
Neigh   | 0          | 0          | 0          |   0.0 |  0.00
Comm    | 0.00014867 | 0.00014867 | 0.00014867 |   0.0 |  0.59
Output  | 0.0025127  | 0.0025127  | 0.0025127  |   0.0 | 10.05
Modify  | 0.021352   | 0.021352   | 0.021352   |   0.0 | 85.38
Other   |            | 0.0002466  |            |       |  0.99

Nlocal:             10 ave          10 max          10 min
Histogram: 1 0 0 0 0 0 0 0 0 0
Nghost:              0 ave           0 max           0 min
Histogram: 1 0 0 0 0 0 0 0 0 0
Neighs:             45 ave          45 max          45 min
Histogram: 1 0 0 0 0 0 0 0 0 0

Total # of neighbors = 45
Ave neighs/atom = 4.5
Neighbor list builds = 0
Dangerous builds = 0




variable coolx atom (9.269386030594033e-20+(2.703426035144626e-21*vx))*-0.5000000000000001
variable cooly atom (9.269386030594033e-20+2.703426035144626e-21*vy)*-0.5000000000000001
variable coolz atom (9.269386030594033e-20+2.703426035144626e-21*vz)*-0.7071067811865476
fix 569202603907006 1 addforce v_coolx v_cooly v_coolz



timestep 1e-07


# Run simulation

run 10000
Generated 0 of 0 mixed pair_coeff terms from geometric mixing rule
WARNING: Proc sub-domain size < neighbor skin, could lead to lost atoms (src/domain.cpp:970)
Per MPI rank memory allocation (min/avg/max) = 5.28 | 5.28 | 5.28 Mbytes
   Step          CPU      
    124000   0            
    130000   0.23324037   
    134000   0.38789842   
Loop time of 0.387915 on 1 procs for 10000 steps with 10 atoms

97.5% CPU use with 1 MPI tasks x no OpenMP threads

MPI task timing breakdown:
Section |  min time  |  avg time  |  max time  |%varavg| %total
---------------------------------------------------------------
Pair    | 0.0075789  | 0.0075789  | 0.0075789  |   0.0 |  1.95
Neigh   | 0          | 0          | 0          |   0.0 |  0.00
Comm    | 0.0014665  | 0.0014665  | 0.0014665  |   0.0 |  0.38
Output  | 0.026683   | 0.026683   | 0.026683   |   0.0 |  6.88
Modify  | 0.34967    | 0.34967    | 0.34967    |   0.0 | 90.14
Other   |            | 0.002518   |            |       |  0.65

Nlocal:             10 ave          10 max          10 min
Histogram: 1 0 0 0 0 0 0 0 0 0
Nghost:              0 ave           0 max           0 min
Histogram: 1 0 0 0 0 0 0 0 0 0
Neighs:             45 ave          45 max          45 min
Histogram: 1 0 0 0 0 0 0 0 0 0

Total # of neighbors = 45
Ave neighs/atom = 4.5
Neighbor list builds = 0
Dangerous builds = 0





# Deleting a fix by uid

unfix 569202603907006




variable E equal 0
variable Ex atom (1*(1+0*(x-0)+0*(x-0)^2+0*(y-0)+0*(y-0)^2+0*(z-0)+0*(z-0)^2))*cos((2*3.141592653589793)*0.0071*step)
variable B equal 0
variable Ey atom (1*(0+0*(x-0)+0*(x-0)^2+0.0*(y-0)+0.0*(y-0)^2+0*(z-0)+0*(z-0)^2))*cos((2*3.141592653589793)*0.0071*step)
variable C equal 0
variable Ez atom (1*(0+0*(x-0)+0*(x-0)^2+0*(y-0)+0*(y-0)^2+0*(z-0)+0*(z-0)^2))*cos((2*3.141592653589793)*0.0071*step)
fix 469202603907011 all efield v_Ex v_Ey v_Ez



timestep 1e-08


# Run simulation

run 10000
Generated 0 of 0 mixed pair_coeff terms from geometric mixing rule
WARNING: Proc sub-domain size < neighbor skin, could lead to lost atoms (src/domain.cpp:970)
Per MPI rank memory allocation (min/avg/max) = 5.28 | 5.28 | 5.28 Mbytes
   Step          CPU      
    134000   0            
    140000   0.55043041   
    144000   0.92914666   
Loop time of 0.929164 on 1 procs for 10000 steps with 10 atoms

98.4% CPU use with 1 MPI tasks x no OpenMP threads

MPI task timing breakdown:
Section |  min time  |  avg time  |  max time  |%varavg| %total
---------------------------------------------------------------
Pair    | 0.0075235  | 0.0075235  | 0.0075235  |   0.0 |  0.81
Neigh   | 0          | 0          | 0          |   0.0 |  0.00
Comm    | 0.0015183  | 0.0015183  | 0.0015183  |   0.0 |  0.16
Output  | 0.029089   | 0.029089   | 0.029089   |   0.0 |  3.13
Modify  | 0.88836    | 0.88836    | 0.88836    |   0.0 | 95.61
Other   |            | 0.002673   |            |       |  0.29

Nlocal:             10 ave          10 max          10 min
Histogram: 1 0 0 0 0 0 0 0 0 0
Nghost:              0 ave           0 max           0 min
Histogram: 1 0 0 0 0 0 0 0 0 0
Neighs:             45 ave          45 max          45 min
Histogram: 1 0 0 0 0 0 0 0 0 0

Total # of neighbors = 45
Ave neighs/atom = 4.5
Neighbor list builds = 0
Dangerous builds = 0





# Deleting a fix by uid

unfix 469202603907011




timestep 1e-07


# Run simulation

run 1000
Generated 0 of 0 mixed pair_coeff terms from geometric mixing rule
WARNING: Proc sub-domain size < neighbor skin, could lead to lost atoms (src/domain.cpp:970)
Per MPI rank memory allocation (min/avg/max) = 4.78 | 4.78 | 4.78 Mbytes
   Step          CPU      
    144000   0            
    145000   0.030025723  
Loop time of 0.0300648 on 1 procs for 1000 steps with 10 atoms

90.8% CPU use with 1 MPI tasks x no OpenMP threads

MPI task timing breakdown:
Section |  min time  |  avg time  |  max time  |%varavg| %total
---------------------------------------------------------------
Pair    | 0.00082181 | 0.00082181 | 0.00082181 |   0.0 |  2.73
Neigh   | 0          | 0          | 0          |   0.0 |  0.00
Comm    | 0.00016207 | 0.00016207 | 0.00016207 |   0.0 |  0.54
Output  | 0.0037656  | 0.0037656  | 0.0037656  |   0.0 | 12.52
Modify  | 0.024988   | 0.024988   | 0.024988   |   0.0 | 83.12
Other   |            | 0.0003269  |            |       |  1.09

Nlocal:             10 ave          10 max          10 min
Histogram: 1 0 0 0 0 0 0 0 0 0
Nghost:              0 ave           0 max           0 min
Histogram: 1 0 0 0 0 0 0 0 0 0
Neighs:             45 ave          45 max          45 min
Histogram: 1 0 0 0 0 0 0 0 0 0

Total # of neighbors = 45
Ave neighs/atom = 4.5
Neighbor list builds = 0
Dangerous builds = 0




variable coolx atom (9.269386030594033e-20+(2.703426035144626e-21*vx))*-0.5000000000000001
variable cooly atom (9.269386030594033e-20+2.703426035144626e-21*vy)*-0.5000000000000001
variable coolz atom (9.269386030594033e-20+2.703426035144626e-21*vz)*-0.7071067811865476
fix 569202603907007 1 addforce v_coolx v_cooly v_coolz



timestep 1e-07


# Run simulation

run 10000
Generated 0 of 0 mixed pair_coeff terms from geometric mixing rule
WARNING: Proc sub-domain size < neighbor skin, could lead to lost atoms (src/domain.cpp:970)
Per MPI rank memory allocation (min/avg/max) = 5.28 | 5.28 | 5.28 Mbytes
   Step          CPU      
    145000   0            
    150000   0.21876992   
    155000   0.43585556   
Loop time of 0.435875 on 1 procs for 10000 steps with 10 atoms

92.8% CPU use with 1 MPI tasks x no OpenMP threads

MPI task timing breakdown:
Section |  min time  |  avg time  |  max time  |%varavg| %total
---------------------------------------------------------------
Pair    | 0.0080991  | 0.0080991  | 0.0080991  |   0.0 |  1.86
Neigh   | 0          | 0          | 0          |   0.0 |  0.00
Comm    | 0.0016757  | 0.0016757  | 0.0016757  |   0.0 |  0.38
Output  | 0.035729   | 0.035729   | 0.035729   |   0.0 |  8.20
Modify  | 0.38725    | 0.38725    | 0.38725    |   0.0 | 88.84
Other   |            | 0.00312    |            |       |  0.72

Nlocal:             10 ave          10 max          10 min
Histogram: 1 0 0 0 0 0 0 0 0 0
Nghost:              0 ave           0 max           0 min
Histogram: 1 0 0 0 0 0 0 0 0 0
Neighs:             45 ave          45 max          45 min
Histogram: 1 0 0 0 0 0 0 0 0 0

Total # of neighbors = 45
Ave neighs/atom = 4.5
Neighbor list builds = 0
Dangerous builds = 0





# Deleting a fix by uid

unfix 569202603907007




variable E equal 0
variable Ex atom (1*(1+0*(x-0)+0*(x-0)^2+0*(y-0)+0*(y-0)^2+0*(z-0)+0*(z-0)^2))*cos((2*3.141592653589793)*0.0071400000000000005*step)
variable B equal 0
variable Ey atom (1*(0+0*(x-0)+0*(x-0)^2+0.0*(y-0)+0.0*(y-0)^2+0*(z-0)+0*(z-0)^2))*cos((2*3.141592653589793)*0.0071400000000000005*step)
variable C equal 0
variable Ez atom (1*(0+0*(x-0)+0*(x-0)^2+0*(y-0)+0*(y-0)^2+0*(z-0)+0*(z-0)^2))*cos((2*3.141592653589793)*0.0071400000000000005*step)
fix 469202603907012 all efield v_Ex v_Ey v_Ez



timestep 1e-08


# Run simulation

run 10000
Generated 0 of 0 mixed pair_coeff terms from geometric mixing rule
WARNING: Proc sub-domain size < neighbor skin, could lead to lost atoms (src/domain.cpp:970)
Per MPI rank memory allocation (min/avg/max) = 5.28 | 5.28 | 5.28 Mbytes
   Step          CPU      
    155000   0            
    160000   0.5204913    
    165000   1.1081893    
Loop time of 1.10824 on 1 procs for 10000 steps with 10 atoms

93.1% CPU use with 1 MPI tasks x no OpenMP threads

MPI task timing breakdown:
Section |  min time  |  avg time  |  max time  |%varavg| %total
---------------------------------------------------------------
Pair    | 0.0088642  | 0.0088642  | 0.0088642  |   0.0 |  0.80
Neigh   | 0          | 0          | 0          |   0.0 |  0.00
Comm    | 0.0020407  | 0.0020407  | 0.0020407  |   0.0 |  0.18
Output  | 0.047486   | 0.047486   | 0.047486   |   0.0 |  4.28
Modify  | 1.046      | 1.046      | 1.046      |   0.0 | 94.38
Other   |            | 0.003864   |            |       |  0.35

Nlocal:             10 ave          10 max          10 min
Histogram: 1 0 0 0 0 0 0 0 0 0
Nghost:              0 ave           0 max           0 min
Histogram: 1 0 0 0 0 0 0 0 0 0
Neighs:             45 ave          45 max          45 min
Histogram: 1 0 0 0 0 0 0 0 0 0

Total # of neighbors = 45
Ave neighs/atom = 4.5
Neighbor list builds = 0
Dangerous builds = 0





# Deleting a fix by uid

unfix 469202603907012




timestep 1e-07


# Run simulation

run 1000
Generated 0 of 0 mixed pair_coeff terms from geometric mixing rule
WARNING: Proc sub-domain size < neighbor skin, could lead to lost atoms (src/domain.cpp:970)
Per MPI rank memory allocation (min/avg/max) = 4.78 | 4.78 | 4.78 Mbytes
   Step          CPU      
    165000   0            
    166000   0.030367129  
Loop time of 0.030391 on 1 procs for 1000 steps with 10 atoms

90.2% CPU use with 1 MPI tasks x no OpenMP threads

MPI task timing breakdown:
Section |  min time  |  avg time  |  max time  |%varavg| %total
---------------------------------------------------------------
Pair    | 0.00092746 | 0.00092746 | 0.00092746 |   0.0 |  3.05
Neigh   | 0          | 0          | 0          |   0.0 |  0.00
Comm    | 0.0001904  | 0.0001904  | 0.0001904  |   0.0 |  0.63
Output  | 0.0037355  | 0.0037355  | 0.0037355  |   0.0 | 12.29
Modify  | 0.025172   | 0.025172   | 0.025172   |   0.0 | 82.83
Other   |            | 0.0003661  |            |       |  1.20

Nlocal:             10 ave          10 max          10 min
Histogram: 1 0 0 0 0 0 0 0 0 0
Nghost:              0 ave           0 max           0 min
Histogram: 1 0 0 0 0 0 0 0 0 0
Neighs:             45 ave          45 max          45 min
Histogram: 1 0 0 0 0 0 0 0 0 0

Total # of neighbors = 45
Ave neighs/atom = 4.5
Neighbor list builds = 0
Dangerous builds = 0




variable coolx atom (9.269386030594033e-20+(2.703426035144626e-21*vx))*-0.5000000000000001
variable cooly atom (9.269386030594033e-20+2.703426035144626e-21*vy)*-0.5000000000000001
variable coolz atom (9.269386030594033e-20+2.703426035144626e-21*vz)*-0.7071067811865476
fix 569202603907008 1 addforce v_coolx v_cooly v_coolz



timestep 1e-07


# Run simulation

run 10000
Generated 0 of 0 mixed pair_coeff terms from geometric mixing rule
WARNING: Proc sub-domain size < neighbor skin, could lead to lost atoms (src/domain.cpp:970)
Per MPI rank memory allocation (min/avg/max) = 5.28 | 5.28 | 5.28 Mbytes
   Step          CPU      
    166000   0            
    170000   0.19271402   
    176000   0.45190809   
Loop time of 0.451926 on 1 procs for 10000 steps with 10 atoms

91.7% CPU use with 1 MPI tasks x no OpenMP threads

MPI task timing breakdown:
Section |  min time  |  avg time  |  max time  |%varavg| %total
---------------------------------------------------------------
Pair    | 0.008572   | 0.008572   | 0.008572   |   0.0 |  1.90
Neigh   | 0          | 0          | 0          |   0.0 |  0.00
Comm    | 0.0017734  | 0.0017734  | 0.0017734  |   0.0 |  0.39
Output  | 0.040179   | 0.040179   | 0.040179   |   0.0 |  8.89
Modify  | 0.39804    | 0.39804    | 0.39804    |   0.0 | 88.08
Other   |            | 0.003358   |            |       |  0.74

Nlocal:             10 ave          10 max          10 min
Histogram: 1 0 0 0 0 0 0 0 0 0
Nghost:              0 ave           0 max           0 min
Histogram: 1 0 0 0 0 0 0 0 0 0
Neighs:             45 ave          45 max          45 min
Histogram: 1 0 0 0 0 0 0 0 0 0

Total # of neighbors = 45
Ave neighs/atom = 4.5
Neighbor list builds = 0
Dangerous builds = 0





# Deleting a fix by uid

unfix 569202603907008




variable E equal 0
variable Ex atom (1*(1+0*(x-0)+0*(x-0)^2+0*(y-0)+0*(y-0)^2+0*(z-0)+0*(z-0)^2))*cos((2*3.141592653589793)*0.0071600000000000006*step)
variable B equal 0
variable Ey atom (1*(0+0*(x-0)+0*(x-0)^2+0.0*(y-0)+0.0*(y-0)^2+0*(z-0)+0*(z-0)^2))*cos((2*3.141592653589793)*0.0071600000000000006*step)
variable C equal 0
variable Ez atom (1*(0+0*(x-0)+0*(x-0)^2+0*(y-0)+0*(y-0)^2+0*(z-0)+0*(z-0)^2))*cos((2*3.141592653589793)*0.0071600000000000006*step)
fix 469202603907013 all efield v_Ex v_Ey v_Ez



timestep 1e-08


# Run simulation

run 10000
Generated 0 of 0 mixed pair_coeff terms from geometric mixing rule
WARNING: Proc sub-domain size < neighbor skin, could lead to lost atoms (src/domain.cpp:970)
Per MPI rank memory allocation (min/avg/max) = 5.28 | 5.28 | 5.28 Mbytes
   Step          CPU      
    176000   0            
    180000   0.3819613    
    186000   0.95305478   
Loop time of 0.953071 on 1 procs for 10000 steps with 10 atoms

98.0% CPU use with 1 MPI tasks x no OpenMP threads

MPI task timing breakdown:
Section |  min time  |  avg time  |  max time  |%varavg| %total
---------------------------------------------------------------
Pair    | 0.007705   | 0.007705   | 0.007705   |   0.0 |  0.81
Neigh   | 0          | 0          | 0          |   0.0 |  0.00
Comm    | 0.0015367  | 0.0015367  | 0.0015367  |   0.0 |  0.16
Output  | 0.031566   | 0.031566   | 0.031566   |   0.0 |  3.31
Modify  | 0.90951    | 0.90951    | 0.90951    |   0.0 | 95.43
Other   |            | 0.002749   |            |       |  0.29

Nlocal:             10 ave          10 max          10 min
Histogram: 1 0 0 0 0 0 0 0 0 0
Nghost:              0 ave           0 max           0 min
Histogram: 1 0 0 0 0 0 0 0 0 0
Neighs:             45 ave          45 max          45 min
Histogram: 1 0 0 0 0 0 0 0 0 0

Total # of neighbors = 45
Ave neighs/atom = 4.5
Neighbor list builds = 0
Dangerous builds = 0





# Deleting a fix by uid

unfix 469202603907013




timestep 1e-07


# Run simulation

run 1000
Generated 0 of 0 mixed pair_coeff terms from geometric mixing rule
WARNING: Proc sub-domain size < neighbor skin, could lead to lost atoms (src/domain.cpp:970)
Per MPI rank memory allocation (min/avg/max) = 4.78 | 4.78 | 4.78 Mbytes
   Step          CPU      
    186000   0            
    187000   0.025022295  
Loop time of 0.0250377 on 1 procs for 1000 steps with 10 atoms

97.4% CPU use with 1 MPI tasks x no OpenMP threads

MPI task timing breakdown:
Section |  min time  |  avg time  |  max time  |%varavg| %total
---------------------------------------------------------------
Pair    | 0.00074073 | 0.00074073 | 0.00074073 |   0.0 |  2.96
Neigh   | 0          | 0          | 0          |   0.0 |  0.00
Comm    | 0.00014198 | 0.00014198 | 0.00014198 |   0.0 |  0.57
Output  | 0.0025492  | 0.0025492  | 0.0025492  |   0.0 | 10.18
Modify  | 0.021357   | 0.021357   | 0.021357   |   0.0 | 85.30
Other   |            | 0.0002489  |            |       |  0.99

Nlocal:             10 ave          10 max          10 min
Histogram: 1 0 0 0 0 0 0 0 0 0
Nghost:              0 ave           0 max           0 min
Histogram: 1 0 0 0 0 0 0 0 0 0
Neighs:             45 ave          45 max          45 min
Histogram: 1 0 0 0 0 0 0 0 0 0

Total # of neighbors = 45
Ave neighs/atom = 4.5
Neighbor list builds = 0
Dangerous builds = 0




variable coolx atom (9.269386030594033e-20+(2.703426035144626e-21*vx))*-0.5000000000000001
variable cooly atom (9.269386030594033e-20+2.703426035144626e-21*vy)*-0.5000000000000001
variable coolz atom (9.269386030594033e-20+2.703426035144626e-21*vz)*-0.7071067811865476
fix 569202603907009 1 addforce v_coolx v_cooly v_coolz



timestep 1e-07


# Run simulation

run 10000
Generated 0 of 0 mixed pair_coeff terms from geometric mixing rule
WARNING: Proc sub-domain size < neighbor skin, could lead to lost atoms (src/domain.cpp:970)
Per MPI rank memory allocation (min/avg/max) = 5.28 | 5.28 | 5.28 Mbytes
   Step          CPU      
    187000   0            
    190000   0.11501354   
    197000   0.40451783   
Loop time of 0.404536 on 1 procs for 10000 steps with 10 atoms

95.8% CPU use with 1 MPI tasks x no OpenMP threads

MPI task timing breakdown:
Section |  min time  |  avg time  |  max time  |%varavg| %total
---------------------------------------------------------------
Pair    | 0.0077902  | 0.0077902  | 0.0077902  |   0.0 |  1.93
Neigh   | 0          | 0          | 0          |   0.0 |  0.00
Comm    | 0.001522   | 0.001522   | 0.001522   |   0.0 |  0.38
Output  | 0.030304   | 0.030304   | 0.030304   |   0.0 |  7.49
Modify  | 0.36206    | 0.36206    | 0.36206    |   0.0 | 89.50
Other   |            | 0.002856   |            |       |  0.71

Nlocal:             10 ave          10 max          10 min
Histogram: 1 0 0 0 0 0 0 0 0 0
Nghost:              0 ave           0 max           0 min
Histogram: 1 0 0 0 0 0 0 0 0 0
Neighs:             45 ave          45 max          45 min
Histogram: 1 0 0 0 0 0 0 0 0 0

Total # of neighbors = 45
Ave neighs/atom = 4.5
Neighbor list builds = 0
Dangerous builds = 0





# Deleting a fix by uid

unfix 569202603907009




variable E equal 0
variable Ex atom (1*(1+0*(x-0)+0*(x-0)^2+0*(y-0)+0*(y-0)^2+0*(z-0)+0*(z-0)^2))*cos((2*3.141592653589793)*0.00718*step)
variable B equal 0
variable Ey atom (1*(0+0*(x-0)+0*(x-0)^2+0.0*(y-0)+0.0*(y-0)^2+0*(z-0)+0*(z-0)^2))*cos((2*3.141592653589793)*0.00718*step)
variable C equal 0
variable Ez atom (1*(0+0*(x-0)+0*(x-0)^2+0*(y-0)+0*(y-0)^2+0*(z-0)+0*(z-0)^2))*cos((2*3.141592653589793)*0.00718*step)
fix 469202603907014 all efield v_Ex v_Ey v_Ez



timestep 1e-08


# Run simulation

run 10000
Generated 0 of 0 mixed pair_coeff terms from geometric mixing rule
WARNING: Proc sub-domain size < neighbor skin, could lead to lost atoms (src/domain.cpp:970)
Per MPI rank memory allocation (min/avg/max) = 5.28 | 5.28 | 5.28 Mbytes
   Step          CPU      
    197000   0            
    200000   0.27527023   
    207000   0.98315593   
Loop time of 0.983174 on 1 procs for 10000 steps with 10 atoms

96.2% CPU use with 1 MPI tasks x no OpenMP threads

MPI task timing breakdown:
Section |  min time  |  avg time  |  max time  |%varavg| %total
---------------------------------------------------------------
Pair    | 0.0080375  | 0.0080375  | 0.0080375  |   0.0 |  0.82
Neigh   | 0          | 0          | 0          |   0.0 |  0.00
Comm    | 0.0016635  | 0.0016635  | 0.0016635  |   0.0 |  0.17
Output  | 0.035044   | 0.035044   | 0.035044   |   0.0 |  3.56
Modify  | 0.93533    | 0.93533    | 0.93533    |   0.0 | 95.13
Other   |            | 0.003103   |            |       |  0.32

Nlocal:             10 ave          10 max          10 min
Histogram: 1 0 0 0 0 0 0 0 0 0
Nghost:              0 ave           0 max           0 min
Histogram: 1 0 0 0 0 0 0 0 0 0
Neighs:             45 ave          45 max          45 min
Histogram: 1 0 0 0 0 0 0 0 0 0

Total # of neighbors = 45
Ave neighs/atom = 4.5
Neighbor list builds = 0
Dangerous builds = 0





# Deleting a fix by uid

unfix 469202603907014




timestep 1e-07


# Run simulation

run 1000
Generated 0 of 0 mixed pair_coeff terms from geometric mixing rule
WARNING: Proc sub-domain size < neighbor skin, could lead to lost atoms (src/domain.cpp:970)
Per MPI rank memory allocation (min/avg/max) = 4.78 | 4.78 | 4.78 Mbytes
   Step          CPU      
    207000   0            
    208000   0.024639542  
Loop time of 0.0246535 on 1 procs for 1000 steps with 10 atoms

97.3% CPU use with 1 MPI tasks x no OpenMP threads

MPI task timing breakdown:
Section |  min time  |  avg time  |  max time  |%varavg| %total
---------------------------------------------------------------
Pair    | 0.00079238 | 0.00079238 | 0.00079238 |   0.0 |  3.21
Neigh   | 0          | 0          | 0          |   0.0 |  0.00
Comm    | 0.00013988 | 0.00013988 | 0.00013988 |   0.0 |  0.57
Output  | 0.0025078  | 0.0025078  | 0.0025078  |   0.0 | 10.17
Modify  | 0.020969   | 0.020969   | 0.020969   |   0.0 | 85.05
Other   |            | 0.0002447  |            |       |  0.99

Nlocal:             10 ave          10 max          10 min
Histogram: 1 0 0 0 0 0 0 0 0 0
Nghost:              0 ave           0 max           0 min
Histogram: 1 0 0 0 0 0 0 0 0 0
Neighs:             45 ave          45 max          45 min
Histogram: 1 0 0 0 0 0 0 0 0 0

Total # of neighbors = 45
Ave neighs/atom = 4.5
Neighbor list builds = 0
Dangerous builds = 0




variable coolx atom (9.269386030594033e-20+(2.703426035144626e-21*vx))*-0.5000000000000001
variable cooly atom (9.269386030594033e-20+2.703426035144626e-21*vy)*-0.5000000000000001
variable coolz atom (9.269386030594033e-20+2.703426035144626e-21*vz)*-0.7071067811865476
fix 569202603907010 1 addforce v_coolx v_cooly v_coolz



timestep 1e-07


# Run simulation

run 10000
Generated 0 of 0 mixed pair_coeff terms from geometric mixing rule
WARNING: Proc sub-domain size < neighbor skin, could lead to lost atoms (src/domain.cpp:970)
Per MPI rank memory allocation (min/avg/max) = 5.28 | 5.28 | 5.28 Mbytes
   Step          CPU      
    208000   0            
    210000   0.075758124  
    218000   0.47456389   
Loop time of 0.474601 on 1 procs for 10000 steps with 10 atoms

86.7% CPU use with 1 MPI tasks x no OpenMP threads

MPI task timing breakdown:
Section |  min time  |  avg time  |  max time  |%varavg| %total
---------------------------------------------------------------
Pair    | 0.0083834  | 0.0083834  | 0.0083834  |   0.0 |  1.77
Neigh   | 0          | 0          | 0          |   0.0 |  0.00
Comm    | 0.0017099  | 0.0017099  | 0.0017099  |   0.0 |  0.36
Output  | 0.071125   | 0.071125   | 0.071125   |   0.0 | 14.99
Modify  | 0.39022    | 0.39022    | 0.39022    |   0.0 | 82.22
Other   |            | 0.003161   |            |       |  0.67

Nlocal:             10 ave          10 max          10 min
Histogram: 1 0 0 0 0 0 0 0 0 0
Nghost:              0 ave           0 max           0 min
Histogram: 1 0 0 0 0 0 0 0 0 0
Neighs:             45 ave          45 max          45 min
Histogram: 1 0 0 0 0 0 0 0 0 0

Total # of neighbors = 45
Ave neighs/atom = 4.5
Neighbor list builds = 0
Dangerous builds = 0





# Deleting a fix by uid

unfix 569202603907010




variable E equal 0
variable Ex atom (1*(1+0*(x-0)+0*(x-0)^2+0*(y-0)+0*(y-0)^2+0*(z-0)+0*(z-0)^2))*cos((2*3.141592653589793)*0.0072*step)
variable B equal 0
variable Ey atom (1*(0+0*(x-0)+0*(x-0)^2+0.0*(y-0)+0.0*(y-0)^2+0*(z-0)+0*(z-0)^2))*cos((2*3.141592653589793)*0.0072*step)
variable C equal 0
variable Ez atom (1*(0+0*(x-0)+0*(x-0)^2+0*(y-0)+0*(y-0)^2+0*(z-0)+0*(z-0)^2))*cos((2*3.141592653589793)*0.0072*step)
fix 469202603907015 all efield v_Ex v_Ey v_Ez



timestep 1e-08


# Run simulation

run 10000
Generated 0 of 0 mixed pair_coeff terms from geometric mixing rule
WARNING: Proc sub-domain size < neighbor skin, could lead to lost atoms (src/domain.cpp:970)
Per MPI rank memory allocation (min/avg/max) = 5.28 | 5.28 | 5.28 Mbytes
   Step          CPU      
    218000   0            
    220000   0.20899906   
    228000   0.97477728   
Loop time of 0.974802 on 1 procs for 10000 steps with 10 atoms

96.4% CPU use with 1 MPI tasks x no OpenMP threads

MPI task timing breakdown:
Section |  min time  |  avg time  |  max time  |%varavg| %total
---------------------------------------------------------------
Pair    | 0.0078665  | 0.0078665  | 0.0078665  |   0.0 |  0.81
Neigh   | 0          | 0          | 0          |   0.0 |  0.00
Comm    | 0.0016562  | 0.0016562  | 0.0016562  |   0.0 |  0.17
Output  | 0.03487    | 0.03487    | 0.03487    |   0.0 |  3.58
Modify  | 0.92728    | 0.92728    | 0.92728    |   0.0 | 95.13
Other   |            | 0.003126   |            |       |  0.32

Nlocal:             10 ave          10 max          10 min
Histogram: 1 0 0 0 0 0 0 0 0 0
Nghost:              0 ave           0 max           0 min
Histogram: 1 0 0 0 0 0 0 0 0 0
Neighs:             45 ave          45 max          45 min
Histogram: 1 0 0 0 0 0 0 0 0 0

Total # of neighbors = 45
Ave neighs/atom = 4.5
Neighbor list builds = 0
Dangerous builds = 0





# Deleting a fix by uid

unfix 469202603907015




timestep 1e-07


# Run simulation

run 1000
Generated 0 of 0 mixed pair_coeff terms from geometric mixing rule
WARNING: Proc sub-domain size < neighbor skin, could lead to lost atoms (src/domain.cpp:970)
Per MPI rank memory allocation (min/avg/max) = 4.78 | 4.78 | 4.78 Mbytes
   Step          CPU      
    228000   0            
    229000   0.024982274  
Loop time of 0.0249951 on 1 procs for 1000 steps with 10 atoms

97.4% CPU use with 1 MPI tasks x no OpenMP threads

MPI task timing breakdown:
Section |  min time  |  avg time  |  max time  |%varavg| %total
---------------------------------------------------------------
Pair    | 0.00073363 | 0.00073363 | 0.00073363 |   0.0 |  2.94
Neigh   | 0          | 0          | 0          |   0.0 |  0.00
Comm    | 0.0001415  | 0.0001415  | 0.0001415  |   0.0 |  0.57
Output  | 0.0025435  | 0.0025435  | 0.0025435  |   0.0 | 10.18
Modify  | 0.021331   | 0.021331   | 0.021331   |   0.0 | 85.34
Other   |            | 0.0002457  |            |       |  0.98

Nlocal:             10 ave          10 max          10 min
Histogram: 1 0 0 0 0 0 0 0 0 0
Nghost:              0 ave           0 max           0 min
Histogram: 1 0 0 0 0 0 0 0 0 0
Neighs:             45 ave          45 max          45 min
Histogram: 1 0 0 0 0 0 0 0 0 0

Total # of neighbors = 45
Ave neighs/atom = 4.5
Neighbor list builds = 0
Dangerous builds = 0




variable coolx atom (9.269386030594033e-20+(2.703426035144626e-21*vx))*-0.5000000000000001
variable cooly atom (9.269386030594033e-20+2.703426035144626e-21*vy)*-0.5000000000000001
variable coolz atom (9.269386030594033e-20+2.703426035144626e-21*vz)*-0.7071067811865476
fix 569202603907011 1 addforce v_coolx v_cooly v_coolz



timestep 1e-07


# Run simulation

run 10000
Generated 0 of 0 mixed pair_coeff terms from geometric mixing rule
WARNING: Proc sub-domain size < neighbor skin, could lead to lost atoms (src/domain.cpp:970)
Per MPI rank memory allocation (min/avg/max) = 5.28 | 5.28 | 5.28 Mbytes
   Step          CPU      
    229000   0            
    230000   0.038156572  
    239000   0.38434698   
Loop time of 0.384363 on 1 procs for 10000 steps with 10 atoms

98.0% CPU use with 1 MPI tasks x no OpenMP threads

MPI task timing breakdown:
Section |  min time  |  avg time  |  max time  |%varavg| %total
---------------------------------------------------------------
Pair    | 0.0074118  | 0.0074118  | 0.0074118  |   0.0 |  1.93
Neigh   | 0          | 0          | 0          |   0.0 |  0.00
Comm    | 0.0014297  | 0.0014297  | 0.0014297  |   0.0 |  0.37
Output  | 0.026128   | 0.026128   | 0.026128   |   0.0 |  6.80
Modify  | 0.34687    | 0.34687    | 0.34687    |   0.0 | 90.25
Other   |            | 0.002523   |            |       |  0.66

Nlocal:             10 ave          10 max          10 min
Histogram: 1 0 0 0 0 0 0 0 0 0
Nghost:              0 ave           0 max           0 min
Histogram: 1 0 0 0 0 0 0 0 0 0
Neighs:             45 ave          45 max          45 min
Histogram: 1 0 0 0 0 0 0 0 0 0

Total # of neighbors = 45
Ave neighs/atom = 4.5
Neighbor list builds = 0
Dangerous builds = 0





# Deleting a fix by uid

unfix 569202603907011




variable E equal 0
variable Ex atom (1*(1+0*(x-0)+0*(x-0)^2+0*(y-0)+0*(y-0)^2+0*(z-0)+0*(z-0)^2))*cos((2*3.141592653589793)*0.007500000000000001*step)
variable B equal 0
variable Ey atom (1*(0+0*(x-0)+0*(x-0)^2+0.0*(y-0)+0.0*(y-0)^2+0*(z-0)+0*(z-0)^2))*cos((2*3.141592653589793)*0.007500000000000001*step)
variable C equal 0
variable Ez atom (1*(0+0*(x-0)+0*(x-0)^2+0*(y-0)+0*(y-0)^2+0*(z-0)+0*(z-0)^2))*cos((2*3.141592653589793)*0.007500000000000001*step)
fix 469202603907016 all efield v_Ex v_Ey v_Ez



timestep 1e-08


# Run simulation

run 10000
Generated 0 of 0 mixed pair_coeff terms from geometric mixing rule
WARNING: Proc sub-domain size < neighbor skin, could lead to lost atoms (src/domain.cpp:970)
Per MPI rank memory allocation (min/avg/max) = 5.28 | 5.28 | 5.28 Mbytes
   Step          CPU      
    239000   0            
    240000   0.0983794    
    249000   1.0715581    
Loop time of 1.07158 on 1 procs for 10000 steps with 10 atoms

94.6% CPU use with 1 MPI tasks x no OpenMP threads

MPI task timing breakdown:
Section |  min time  |  avg time  |  max time  |%varavg| %total
---------------------------------------------------------------
Pair    | 0.0087105  | 0.0087105  | 0.0087105  |   0.0 |  0.81
Neigh   | 0          | 0          | 0          |   0.0 |  0.00
Comm    | 0.0019075  | 0.0019075  | 0.0019075  |   0.0 |  0.18
Output  | 0.042187   | 0.042187   | 0.042187   |   0.0 |  3.94
Modify  | 1.0151     | 1.0151     | 1.0151     |   0.0 | 94.73
Other   |            | 0.003674   |            |       |  0.34

Nlocal:             10 ave          10 max          10 min
Histogram: 1 0 0 0 0 0 0 0 0 0
Nghost:              0 ave           0 max           0 min
Histogram: 1 0 0 0 0 0 0 0 0 0
Neighs:             45 ave          45 max          45 min
Histogram: 1 0 0 0 0 0 0 0 0 0

Total # of neighbors = 45
Ave neighs/atom = 4.5
Neighbor list builds = 0
Dangerous builds = 0





# Deleting a fix by uid

unfix 469202603907016




timestep 1e-07


# Run simulation

run 1000
Generated 0 of 0 mixed pair_coeff terms from geometric mixing rule
WARNING: Proc sub-domain size < neighbor skin, could lead to lost atoms (src/domain.cpp:970)
Per MPI rank memory allocation (min/avg/max) = 4.78 | 4.78 | 4.78 Mbytes
   Step          CPU      
    249000   0            
    250000   0.029421043  
Loop time of 0.029438 on 1 procs for 1000 steps with 10 atoms

91.7% CPU use with 1 MPI tasks x no OpenMP threads

MPI task timing breakdown:
Section |  min time  |  avg time  |  max time  |%varavg| %total
---------------------------------------------------------------
Pair    | 0.00086839 | 0.00086839 | 0.00086839 |   0.0 |  2.95
Neigh   | 0          | 0          | 0          |   0.0 |  0.00
Comm    | 0.00017345 | 0.00017345 | 0.00017345 |   0.0 |  0.59
Output  | 0.0034559  | 0.0034559  | 0.0034559  |   0.0 | 11.74
Modify  | 0.024587   | 0.024587   | 0.024587   |   0.0 | 83.52
Other   |            | 0.0003537  |            |       |  1.20

Nlocal:             10 ave          10 max          10 min
Histogram: 1 0 0 0 0 0 0 0 0 0
Nghost:              0 ave           0 max           0 min
Histogram: 1 0 0 0 0 0 0 0 0 0
Neighs:             45 ave          45 max          45 min
Histogram: 1 0 0 0 0 0 0 0 0 0

Total # of neighbors = 45
Ave neighs/atom = 4.5
Neighbor list builds = 0
Dangerous builds = 0




variable coolx atom (9.269386030594033e-20+(2.703426035144626e-21*vx))*-0.5000000000000001
variable cooly atom (9.269386030594033e-20+2.703426035144626e-21*vy)*-0.5000000000000001
variable coolz atom (9.269386030594033e-20+2.703426035144626e-21*vz)*-0.7071067811865476
fix 569202603907012 1 addforce v_coolx v_cooly v_coolz



timestep 1e-07


# Run simulation

run 10000
Generated 0 of 0 mixed pair_coeff terms from geometric mixing rule
WARNING: Proc sub-domain size < neighbor skin, could lead to lost atoms (src/domain.cpp:970)
Per MPI rank memory allocation (min/avg/max) = 5.28 | 5.28 | 5.28 Mbytes
   Step          CPU      
    250000   0            
    260000   0.41677246   
Loop time of 0.41679 on 1 procs for 10000 steps with 10 atoms

94.6% CPU use with 1 MPI tasks x no OpenMP threads

MPI task timing breakdown:
Section |  min time  |  avg time  |  max time  |%varavg| %total
---------------------------------------------------------------
Pair    | 0.0079597  | 0.0079597  | 0.0079597  |   0.0 |  1.91
Neigh   | 0          | 0          | 0          |   0.0 |  0.00
Comm    | 0.0015555  | 0.0015555  | 0.0015555  |   0.0 |  0.37
Output  | 0.034325   | 0.034325   | 0.034325   |   0.0 |  8.24
Modify  | 0.37008    | 0.37008    | 0.37008    |   0.0 | 88.79
Other   |            | 0.002868   |            |       |  0.69

Nlocal:             10 ave          10 max          10 min
Histogram: 1 0 0 0 0 0 0 0 0 0
Nghost:              0 ave           0 max           0 min
Histogram: 1 0 0 0 0 0 0 0 0 0
Neighs:             45 ave          45 max          45 min
Histogram: 1 0 0 0 0 0 0 0 0 0

Total # of neighbors = 45
Ave neighs/atom = 4.5
Neighbor list builds = 0
Dangerous builds = 0





# Deleting a fix by uid

unfix 569202603907012




variable E equal 0
variable Ex atom (1*(1+0*(x-0)+0*(x-0)^2+0*(y-0)+0*(y-0)^2+0*(z-0)+0*(z-0)^2))*cos((2*3.141592653589793)*0.0085*step)
variable B equal 0
variable Ey atom (1*(0+0*(x-0)+0*(x-0)^2+0.0*(y-0)+0.0*(y-0)^2+0*(z-0)+0*(z-0)^2))*cos((2*3.141592653589793)*0.0085*step)
variable C equal 0
variable Ez atom (1*(0+0*(x-0)+0*(x-0)^2+0*(y-0)+0*(y-0)^2+0*(z-0)+0*(z-0)^2))*cos((2*3.141592653589793)*0.0085*step)
fix 469202603907017 all efield v_Ex v_Ey v_Ez



timestep 1e-08


# Run simulation

run 10000
Generated 0 of 0 mixed pair_coeff terms from geometric mixing rule
WARNING: Proc sub-domain size < neighbor skin, could lead to lost atoms (src/domain.cpp:970)
Per MPI rank memory allocation (min/avg/max) = 5.28 | 5.28 | 5.28 Mbytes
   Step          CPU      
    260000   0            
    270000   0.96347693   
Loop time of 0.963493 on 1 procs for 10000 steps with 10 atoms

95.7% CPU use with 1 MPI tasks x no OpenMP threads

MPI task timing breakdown:
Section |  min time  |  avg time  |  max time  |%varavg| %total
---------------------------------------------------------------
Pair    | 0.0077198  | 0.0077198  | 0.0077198  |   0.0 |  0.80
Neigh   | 0          | 0          | 0          |   0.0 |  0.00
Comm    | 0.0016622  | 0.0016622  | 0.0016622  |   0.0 |  0.17
Output  | 0.053025   | 0.053025   | 0.053025   |   0.0 |  5.50
Modify  | 0.89819    | 0.89819    | 0.89819    |   0.0 | 93.22
Other   |            | 0.002901   |            |       |  0.30

Nlocal:             10 ave          10 max          10 min
Histogram: 1 0 0 0 0 0 0 0 0 0
Nghost:              0 ave           0 max           0 min
Histogram: 1 0 0 0 0 0 0 0 0 0
Neighs:             45 ave          45 max          45 min
Histogram: 1 0 0 0 0 0 0 0 0 0

Total # of neighbors = 45
Ave neighs/atom = 4.5
Neighbor list builds = 0
Dangerous builds = 0





# Deleting a fix by uid

unfix 469202603907017




timestep 1e-07


# Run simulation

run 1000
Generated 0 of 0 mixed pair_coeff terms from geometric mixing rule
WARNING: Proc sub-domain size < neighbor skin, could lead to lost atoms (src/domain.cpp:970)
Per MPI rank memory allocation (min/avg/max) = 4.78 | 4.78 | 4.78 Mbytes
   Step          CPU      
    270000   0            
    271000   0.024736181  
Loop time of 0.0247503 on 1 procs for 1000 steps with 10 atoms

97.4% CPU use with 1 MPI tasks x no OpenMP threads

MPI task timing breakdown:
Section |  min time  |  avg time  |  max time  |%varavg| %total
---------------------------------------------------------------
Pair    | 0.00073117 | 0.00073117 | 0.00073117 |   0.0 |  2.95
Neigh   | 0          | 0          | 0          |   0.0 |  0.00
Comm    | 0.00014133 | 0.00014133 | 0.00014133 |   0.0 |  0.57
Output  | 0.0024528  | 0.0024528  | 0.0024528  |   0.0 |  9.91
Modify  | 0.021177   | 0.021177   | 0.021177   |   0.0 | 85.56
Other   |            | 0.0002479  |            |       |  1.00

Nlocal:             10 ave          10 max          10 min
Histogram: 1 0 0 0 0 0 0 0 0 0
Nghost:              0 ave           0 max           0 min
Histogram: 1 0 0 0 0 0 0 0 0 0
Neighs:             45 ave          45 max          45 min
Histogram: 1 0 0 0 0 0 0 0 0 0

Total # of neighbors = 45
Ave neighs/atom = 4.5
Neighbor list builds = 0
Dangerous builds = 0




variable coolx atom (9.269386030594033e-20+(2.703426035144626e-21*vx))*-0.5000000000000001
variable cooly atom (9.269386030594033e-20+2.703426035144626e-21*vy)*-0.5000000000000001
variable coolz atom (9.269386030594033e-20+2.703426035144626e-21*vz)*-0.7071067811865476
fix 569202603907013 1 addforce v_coolx v_cooly v_coolz



timestep 1e-07


# Run simulation

run 10000
Generated 0 of 0 mixed pair_coeff terms from geometric mixing rule
WARNING: Proc sub-domain size < neighbor skin, could lead to lost atoms (src/domain.cpp:970)
Per MPI rank memory allocation (min/avg/max) = 5.28 | 5.28 | 5.28 Mbytes
   Step          CPU      
    271000   0            
    280000   0.34363507   
    281000   0.38220172   
Loop time of 0.382217 on 1 procs for 10000 steps with 10 atoms

98.0% CPU use with 1 MPI tasks x no OpenMP threads

MPI task timing breakdown:
Section |  min time  |  avg time  |  max time  |%varavg| %total
---------------------------------------------------------------
Pair    | 0.0074517  | 0.0074517  | 0.0074517  |   0.0 |  1.95
Neigh   | 0          | 0          | 0          |   0.0 |  0.00
Comm    | 0.0014439  | 0.0014439  | 0.0014439  |   0.0 |  0.38
Output  | 0.025929   | 0.025929   | 0.025929   |   0.0 |  6.78
Modify  | 0.34492    | 0.34492    | 0.34492    |   0.0 | 90.24
Other   |            | 0.002473   |            |       |  0.65

Nlocal:             10 ave          10 max          10 min
Histogram: 1 0 0 0 0 0 0 0 0 0
Nghost:              0 ave           0 max           0 min
Histogram: 1 0 0 0 0 0 0 0 0 0
Neighs:             45 ave          45 max          45 min
Histogram: 1 0 0 0 0 0 0 0 0 0

Total # of neighbors = 45
Ave neighs/atom = 4.5
Neighbor list builds = 0
Dangerous builds = 0





# Deleting a fix by uid

unfix 569202603907013


Total wall time: 0:00:18
