LAMMPS (23 Jun 2022)
##################################################################
# LAMMPS input file generated using pylion 0.5.3
# simulation name: test
#
# pylion is written and maintained by Dimitris Trypogeorgos
# and Elliot Bentine. Download it from
# https://bitbucket.org/dtrypogeorgos/pylion
#
# If you find it useful please cite <paper>.
##################################################################



units si
atom_style charge

# Creating simulation box...
boundary m m m
region simulationDomain block -0.001  0.001 -0.001 0.001 -0.001 0.001 units box
create_box 2 simulationDomain
Created orthogonal box = (-0.001 -0.001 -0.001) to (0.001 0.001 0.001)
  1 by 1 by 1 MPI processor grid

# Configure neighbour list...
neighbor 1 nsq
neigh_modify once yes

# Configure pairwise interactions for long range Coulombics only...
pair_style coul/cut 10
pair_coeff * *

# Placing individual ions...


create_atoms 1 single 4.765278935742842e-05 -9.981292602893516e-05 -0.00016768395977665243 units box
Created 1 atoms
  using box units in orthogonal box = (-0.001 -0.001 -0.001) to (0.001 0.001 0.001)
  create_atoms CPU = 0.000 seconds

create_atoms 1 single -0.00031635972796984066 -2.5690043622805935e-05 -0.00037230810412238114 units box
Created 1 atoms
  using box units in orthogonal box = (-0.001 -0.001 -0.001) to (0.001 0.001 0.001)
  create_atoms CPU = 0.000 seconds

create_atoms 1 single 0.0001222671050897995 0.00012133287114619325 0.0002276512365497117 units box
Created 1 atoms
  using box units in orthogonal box = (-0.001 -0.001 -0.001) to (0.001 0.001 0.001)
  create_atoms CPU = 0.000 seconds

create_atoms 1 single 0.00010562512707991933 0.000446807739710737 -0.00013913405248164152 units box
Created 1 atoms
  using box units in orthogonal box = (-0.001 -0.001 -0.001) to (0.001 0.001 0.001)
  create_atoms CPU = 0.000 seconds

create_atoms 1 single -2.216565553716875e-05 -3.304493106950573e-06 4.023384090736276e-05 units box
Created 1 atoms
  using box units in orthogonal box = (-0.001 -0.001 -0.001) to (0.001 0.001 0.001)
  create_atoms CPU = 0.000 seconds

create_atoms 1 single 3.6281555052180115e-05 -0.00030657240910348396 0.00029309101440686653 units box
Created 1 atoms
  using box units in orthogonal box = (-0.001 -0.001 -0.001) to (0.001 0.001 0.001)
  create_atoms CPU = 0.000 seconds

create_atoms 1 single 2.2477173618027878e-05 -1.7495710114005905e-05 9.978726358270396e-05 units box
Created 1 atoms
  using box units in orthogonal box = (-0.001 -0.001 -0.001) to (0.001 0.001 0.001)
  create_atoms CPU = 0.000 seconds

create_atoms 1 single 4.7239527416619485e-05 2.090400551338338e-05 0.000301938635020976 units box
Created 1 atoms
  using box units in orthogonal box = (-0.001 -0.001 -0.001) to (0.001 0.001 0.001)
  create_atoms CPU = 0.000 seconds

create_atoms 1 single 0.0003512352469462303 0.00042297632158973725 -0.0006524611500531488 units box
Created 1 atoms
  using box units in orthogonal box = (-0.001 -0.001 -0.001) to (0.001 0.001 0.001)
  create_atoms CPU = 0.000 seconds

create_atoms 1 single -0.0003678425558576592 9.750978870152258e-05 -5.8092665341517767e-05 units box
Created 1 atoms
  using box units in orthogonal box = (-0.001 -0.001 -0.001) to (0.001 0.001 0.001)
  create_atoms CPU = 0.000 seconds

create_atoms 1 single 0.00012857595766590163 -0.0001914086049509585 0.0004913539718172244 units box
Created 1 atoms
  using box units in orthogonal box = (-0.001 -0.001 -0.001) to (0.001 0.001 0.001)
  create_atoms CPU = 0.000 seconds

create_atoms 1 single -0.00012351609786722393 7.868549164490533e-05 -0.00010793330866258936 units box
Created 1 atoms
  using box units in orthogonal box = (-0.001 -0.001 -0.001) to (0.001 0.001 0.001)
  create_atoms CPU = 0.000 seconds

create_atoms 1 single -0.0001415659104347765 0.0009152566068749119 7.545851445206928e-05 units box
Created 1 atoms
  using box units in orthogonal box = (-0.001 -0.001 -0.001) to (0.001 0.001 0.001)
  create_atoms CPU = 0.000 seconds

create_atoms 1 single -4.718151513938323e-06 -0.0003728150047412568 -4.855457664290597e-05 units box
Created 1 atoms
  using box units in orthogonal box = (-0.001 -0.001 -0.001) to (0.001 0.001 0.001)
  create_atoms CPU = 0.000 seconds

create_atoms 1 single -0.00023628175084688456 0.0004657503862121858 -0.0001780656333484335 units box
Created 1 atoms
  using box units in orthogonal box = (-0.001 -0.001 -0.001) to (0.001 0.001 0.001)
  create_atoms CPU = 0.000 seconds

create_atoms 1 single 3.42147678197296e-06 -7.589837734922802e-07 0.00043986116884768594 units box
Created 1 atoms
  using box units in orthogonal box = (-0.001 -0.001 -0.001) to (0.001 0.001 0.001)
  create_atoms CPU = 0.000 seconds

create_atoms 1 single -0.00021676769647944514 0.0001866710454247512 -0.0008428161318924455 units box
Created 1 atoms
  using box units in orthogonal box = (-0.001 -0.001 -0.001) to (0.001 0.001 0.001)
  create_atoms CPU = 0.000 seconds

create_atoms 1 single 5.80017166876871e-05 5.7292277706018825e-05 0.0003103230136145353 units box
Created 1 atoms
  using box units in orthogonal box = (-0.001 -0.001 -0.001) to (0.001 0.001 0.001)
  create_atoms CPU = 0.000 seconds

create_atoms 1 single 0.000113622566173831 -0.000681648483026262 7.306356189522309e-05 units box
Created 1 atoms
  using box units in orthogonal box = (-0.001 -0.001 -0.001) to (0.001 0.001 0.001)
  create_atoms CPU = 0.000 seconds

create_atoms 1 single -0.0002717756185247772 -0.0006743623423892569 2.9044507808290675e-05 units box
Created 1 atoms
  using box units in orthogonal box = (-0.001 -0.001 -0.001) to (0.001 0.001 0.001)
  create_atoms CPU = 0.000 seconds


# Species...
mass 1 1.4944851e-26
set type 1 charge 1.6021764599999998e-19
Setting atom values ...
  20 settings made for charge
group 1 type 1
20 atoms in group 1



create_atoms 2 single 0.00032302668771834616 0.00043432477397108165 -0.0008254424826589069 units box
Created 1 atoms
  using box units in orthogonal box = (-0.001 -0.001 -0.001) to (0.001 0.001 0.001)
  create_atoms CPU = 0.000 seconds

create_atoms 2 single 0.00018151075028140757 -0.00021432455727156974 -2.2933995964512586e-05 units box
Created 1 atoms
  using box units in orthogonal box = (-0.001 -0.001 -0.001) to (0.001 0.001 0.001)
  create_atoms CPU = 0.000 seconds

create_atoms 2 single -0.000168926431621654 9.872993358783644e-05 0.00020192810294390864 units box
Created 1 atoms
  using box units in orthogonal box = (-0.001 -0.001 -0.001) to (0.001 0.001 0.001)
  create_atoms CPU = 0.000 seconds

create_atoms 2 single 0.00022423277372921575 -0.0004607832483651479 0.00020466509233614603 units box
Created 1 atoms
  using box units in orthogonal box = (-0.001 -0.001 -0.001) to (0.001 0.001 0.001)
  create_atoms CPU = 0.000 seconds

create_atoms 2 single -0.0002101871165300992 5.4952460303655e-06 0.0002135852697582269 units box
Created 1 atoms
  using box units in orthogonal box = (-0.001 -0.001 -0.001) to (0.001 0.001 0.001)
  create_atoms CPU = 0.000 seconds

create_atoms 2 single 3.450051441309094e-05 0.0009019613832975448 -0.00021050020845567389 units box
Created 1 atoms
  using box units in orthogonal box = (-0.001 -0.001 -0.001) to (0.001 0.001 0.001)
  create_atoms CPU = 0.000 seconds

create_atoms 2 single 0.00032313911743589235 9.665857559901722e-05 0.000910652144815928 units box
Created 1 atoms
  using box units in orthogonal box = (-0.001 -0.001 -0.001) to (0.001 0.001 0.001)
  create_atoms CPU = 0.000 seconds

create_atoms 2 single 2.240161794227956e-06 3.0344707039569804e-06 0.0004007418854707284 units box
Created 1 atoms
  using box units in orthogonal box = (-0.001 -0.001 -0.001) to (0.001 0.001 0.001)
  create_atoms CPU = 0.000 seconds

create_atoms 2 single -0.0004998965256859992 0.0002571932082002854 0.0008179099339775674 units box
Created 1 atoms
  using box units in orthogonal box = (-0.001 -0.001 -0.001) to (0.001 0.001 0.001)
  create_atoms CPU = 0.000 seconds

create_atoms 2 single 0.00020245285347704535 2.287272913307774e-06 7.078921697113754e-05 units box
Created 1 atoms
  using box units in orthogonal box = (-0.001 -0.001 -0.001) to (0.001 0.001 0.001)
  create_atoms CPU = 0.000 seconds


# Species...
mass 2 5.3137248e-26
set type 2 charge 1.6021764599999998e-19
Setting atom values ...
  10 settings made for charge
group 2 type 2
10 atoms in group 2


timestep 1e-06

# Configuring additional output to flush buffer during simulation...
thermo 10000
thermo_style custom step cpu
thermo_modify flush yes

# Time integration...

group nonRigidBody union all
30 atoms in group nonRigidBody

fix timeIntegrator nonRigidBody nve



dump 9193288606 all custom 10 /Users/michaelmitchell/qlicS/data/2024-07-07_16-30-51/positions.txt id x y z vx vy vz





# Pseudopotential approximation for Linear Paul trap... (fixID=9195084360)


# SHO

variable k_x9195084360		equal 1.773509e-12

variable k_y9195084360		equal 1.773509e-12

variable k_z9195084360		equal 1.548694e-13

variable fX9195084360 atom "-v_k_x9195084360 * x"

variable fY9195084360 atom "-v_k_y9195084360 * y"

variable fZ9195084360 atom "-v_k_z9195084360 * z"

variable E9195084360 atom "v_k_x9195084360 * x * x /         2 + v_k_y9195084360 * y * y / 2 + v_k_z9195084360 * z * z / 2"

fix 9195084360 all addforce         v_fX9195084360 v_fY9195084360 v_fZ9195084360 energy v_E9195084360




variable coolx atom (9.269386030594033e-20+(-2.703426035144626e-21*vx))*-0.5000000000000001
variable cooly atom (9.269386030594033e-20+-2.703426035144626e-21*vy)*-0.5000000000000001
variable coolz atom (9.269386030594033e-20+-2.703426035144626e-21*vz)*-0.7071067811865476
fix 569202603907002 1 addforce v_coolx v_cooly v_coolz



timestep 1e-08


# Run simulation

run 20000
Generated 0 of 1 mixed pair_coeff terms from geometric mixing rule
Neighbor list info ...
  update every 1 steps, delay 10 steps, check yes
  max neighbors/atom: 2000, page size: 100000
  master list distance cutoff = 11
  ghost atom cutoff = 11
  1 neighbor lists, perpetual/occasional/extra = 1 0 0
  (1) pair coul/cut, perpetual
      attributes: half, newton on
      pair build: half/nsq/newton
      stencil: none
      bin: none
WARNING: Proc sub-domain size < neighbor skin, could lead to lost atoms (src/domain.cpp:970)
Per MPI rank memory allocation (min/avg/max) = 5.282 | 5.282 | 5.282 Mbytes
   Step          CPU      
         0   0            
     10000   0.52819704   
     20000   1.036636     
Loop time of 1.03665 on 1 procs for 20000 steps with 30 atoms

96.6% CPU use with 1 MPI tasks x no OpenMP threads

MPI task timing breakdown:
Section |  min time  |  avg time  |  max time  |%varavg| %total
---------------------------------------------------------------
Pair    | 0.099258   | 0.099258   | 0.099258   |   0.0 |  9.57
Neigh   | 0          | 0          | 0          |   0.0 |  0.00
Comm    | 0.0031661  | 0.0031661  | 0.0031661  |   0.0 |  0.31
Output  | 0.13683    | 0.13683    | 0.13683    |   0.0 | 13.20
Modify  | 0.79162    | 0.79162    | 0.79162    |   0.0 | 76.36
Other   |            | 0.005787   |            |       |  0.56

Nlocal:             30 ave          30 max          30 min
Histogram: 1 0 0 0 0 0 0 0 0 0
Nghost:              0 ave           0 max           0 min
Histogram: 1 0 0 0 0 0 0 0 0 0
Neighs:            435 ave         435 max         435 min
Histogram: 1 0 0 0 0 0 0 0 0 0

Total # of neighbors = 435
Ave neighs/atom = 14.5
Neighbor list builds = 0
Dangerous builds = 0


Total wall time: 0:00:01
