ITEM: TIMESTEP
0
ITEM: NUMBER OF ATOMS
1
ITEM: BOX BOUNDS mm mm mm
-1.0000000000000000e-03 1.0000000000000000e-03
-1.0000000000000000e-03 1.0000000000000000e-03
-1.0000000000000000e-03 1.0000000000000000e-03
ITEM: ATOMS id x y z vx vy vz
1 0.000199715 -0.000394293 0.000663621 0 0 0
ITEM: TIMESTEP
10
ITEM: NUMBER OF ATOMS
1
ITEM: BOX BOUNDS mm mm mm
-1.0000000000000000e-03 1.0000000000000000e-03
-1.0000000000000000e-03 1.0000000000000000e-03
-1.0000000000000000e-03 1.0000000000000000e-03
ITEM: ATOMS id x y z vx vy vz
1 0.000199516 -0.000393901 0.000663513 -39.7415 78.3689 -21.5024
ITEM: TIMESTEP
20
ITEM: NUMBER OF ATOMS
1
ITEM: BOX BOUNDS mm mm mm
-1.0000000000000000e-03 1.0000000000000000e-03
-1.0000000000000000e-03 1.0000000000000000e-03
-1.0000000000000000e-03 1.0000000000000000e-03
ITEM: ATOMS id x y z vx vy vz
1 0.00019892 -0.000392727 0.000663191 -79.3682 156.511 -42.9703
ITEM: TIMESTEP
30
ITEM: NUMBER OF ATOMS
1
ITEM: BOX BOUNDS mm mm mm
-1.0000000000000000e-03 1.0000000000000000e-03
-1.0000000000000000e-03 1.0000000000000000e-03
-1.0000000000000000e-03 1.0000000000000000e-03
ITEM: ATOMS id x y z vx vy vz
1 0.000197929 -0.000390772 0.000662654 -118.801 234.272 -64.397
ITEM: TIMESTEP
40
ITEM: NUMBER OF ATOMS
1
ITEM: BOX BOUNDS mm mm mm
-1.0000000000000000e-03 1.0000000000000000e-03
-1.0000000000000000e-03 1.0000000000000000e-03
-1.0000000000000000e-03 1.0000000000000000e-03
ITEM: ATOMS id x y z vx vy vz
1 0.000196545 -0.000388043 0.000661903 -157.962 311.496 -85.7754
ITEM: TIMESTEP
50
ITEM: NUMBER OF ATOMS
1
ITEM: BOX BOUNDS mm mm mm
-1.0000000000000000e-03 1.0000000000000000e-03
-1.0000000000000000e-03 1.0000000000000000e-03
-1.0000000000000000e-03 1.0000000000000000e-03
ITEM: ATOMS id x y z vx vy vz
1 0.000194771 -0.000384545 0.000660939 -196.774 388.031 -107.099
ITEM: TIMESTEP
60
ITEM: NUMBER OF ATOMS
1
ITEM: BOX BOUNDS mm mm mm
-1.0000000000000000e-03 1.0000000000000000e-03
-1.0000000000000000e-03 1.0000000000000000e-03
-1.0000000000000000e-03 1.0000000000000000e-03
ITEM: ATOMS id x y z vx vy vz
1 0.000192611 -0.000380285 0.000659761 -235.159 463.725 -128.36
ITEM: TIMESTEP
70
ITEM: NUMBER OF ATOMS
1
ITEM: BOX BOUNDS mm mm mm
-1.0000000000000000e-03 1.0000000000000000e-03
-1.0000000000000000e-03 1.0000000000000000e-03
-1.0000000000000000e-03 1.0000000000000000e-03
ITEM: ATOMS id x y z vx vy vz
1 0.000190069 -0.000375273 0.000658372 -273.042 538.428 -149.553
ITEM: TIMESTEP
80
ITEM: NUMBER OF ATOMS
1
ITEM: BOX BOUNDS mm mm mm
-1.0000000000000000e-03 1.0000000000000000e-03
-1.0000000000000000e-03 1.0000000000000000e-03
-1.0000000000000000e-03 1.0000000000000000e-03
ITEM: ATOMS id x y z vx vy vz
1 0.000187152 -0.00036952 0.000656771 -310.347 611.994 -170.67
ITEM: TIMESTEP
90
ITEM: NUMBER OF ATOMS
1
ITEM: BOX BOUNDS mm mm mm
-1.0000000000000000e-03 1.0000000000000000e-03
-1.0000000000000000e-03 1.0000000000000000e-03
-1.0000000000000000e-03 1.0000000000000000e-03
ITEM: ATOMS id x y z vx vy vz
1 0.000183865 -0.000363038 0.000654959 -347.002 684.275 -191.706
ITEM: TIMESTEP
100
ITEM: NUMBER OF ATOMS
1
ITEM: BOX BOUNDS mm mm mm
-1.0000000000000000e-03 1.0000000000000000e-03
-1.0000000000000000e-03 1.0000000000000000e-03
-1.0000000000000000e-03 1.0000000000000000e-03
ITEM: ATOMS id x y z vx vy vz
1 0.000180214 -0.000355839 0.000652937 -382.933 755.131 -212.652
ITEM: TIMESTEP
110
ITEM: NUMBER OF ATOMS
1
ITEM: BOX BOUNDS mm mm mm
-1.0000000000000000e-03 1.0000000000000000e-03
-1.0000000000000000e-03 1.0000000000000000e-03
-1.0000000000000000e-03 1.0000000000000000e-03
ITEM: ATOMS id x y z vx vy vz
1 0.000176209 -0.00034794 0.000650706 -418.07 824.42 -233.503
ITEM: TIMESTEP
120
ITEM: NUMBER OF ATOMS
1
ITEM: BOX BOUNDS mm mm mm
-1.0000000000000000e-03 1.0000000000000000e-03
-1.0000000000000000e-03 1.0000000000000000e-03
-1.0000000000000000e-03 1.0000000000000000e-03
ITEM: ATOMS id x y z vx vy vz
1 0.000171856 -0.000339357 0.000648267 -452.345 892.007 -254.251
ITEM: TIMESTEP
130
ITEM: NUMBER OF ATOMS
1
ITEM: BOX BOUNDS mm mm mm
-1.0000000000000000e-03 1.0000000000000000e-03
-1.0000000000000000e-03 1.0000000000000000e-03
-1.0000000000000000e-03 1.0000000000000000e-03
ITEM: ATOMS id x y z vx vy vz
1 0.000167165 -0.000330106 0.000645621 -485.688 957.76 -274.891
ITEM: TIMESTEP
140
ITEM: NUMBER OF ATOMS
1
ITEM: BOX BOUNDS mm mm mm
-1.0000000000000000e-03 1.0000000000000000e-03
-1.0000000000000000e-03 1.0000000000000000e-03
-1.0000000000000000e-03 1.0000000000000000e-03
ITEM: ATOMS id x y z vx vy vz
1 0.000162145 -0.000320208 0.00064277 -518.036 1021.55 -295.415
ITEM: TIMESTEP
150
ITEM: NUMBER OF ATOMS
1
ITEM: BOX BOUNDS mm mm mm
-1.0000000000000000e-03 1.0000000000000000e-03
-1.0000000000000000e-03 1.0000000000000000e-03
-1.0000000000000000e-03 1.0000000000000000e-03
ITEM: ATOMS id x y z vx vy vz
1 0.000156808 -0.000309682 0.000639713 -549.324 1083.25 -315.818
ITEM: TIMESTEP
160
ITEM: NUMBER OF ATOMS
1
ITEM: BOX BOUNDS mm mm mm
-1.0000000000000000e-03 1.0000000000000000e-03
-1.0000000000000000e-03 1.0000000000000000e-03
-1.0000000000000000e-03 1.0000000000000000e-03
ITEM: ATOMS id x y z vx vy vz
1 0.000151163 -0.00029855 0.000636454 -579.491 1142.74 -336.093
ITEM: TIMESTEP
170
ITEM: NUMBER OF ATOMS
1
ITEM: BOX BOUNDS mm mm mm
-1.0000000000000000e-03 1.0000000000000000e-03
-1.0000000000000000e-03 1.0000000000000000e-03
-1.0000000000000000e-03 1.0000000000000000e-03
ITEM: ATOMS id x y z vx vy vz
1 0.000145222 -0.000286835 0.000632992 -608.479 1199.9 -356.233
ITEM: TIMESTEP
180
ITEM: NUMBER OF ATOMS
1
ITEM: BOX BOUNDS mm mm mm
-1.0000000000000000e-03 1.0000000000000000e-03
-1.0000000000000000e-03 1.0000000000000000e-03
-1.0000000000000000e-03 1.0000000000000000e-03
ITEM: ATOMS id x y z vx vy vz
1 0.000138997 -0.00027456 0.000629329 -636.23 1254.62 -376.232
ITEM: TIMESTEP
190
ITEM: NUMBER OF ATOMS
1
ITEM: BOX BOUNDS mm mm mm
-1.0000000000000000e-03 1.0000000000000000e-03
-1.0000000000000000e-03 1.0000000000000000e-03
-1.0000000000000000e-03 1.0000000000000000e-03
ITEM: ATOMS id x y z vx vy vz
1 0.000132501 -0.000261751 0.000625468 -662.691 1306.8 -396.084
ITEM: TIMESTEP
200
ITEM: NUMBER OF ATOMS
1
ITEM: BOX BOUNDS mm mm mm
-1.0000000000000000e-03 1.0000000000000000e-03
-1.0000000000000000e-03 1.0000000000000000e-03
-1.0000000000000000e-03 1.0000000000000000e-03
ITEM: ATOMS id x y z vx vy vz
1 0.000125748 -0.000248433 0.000621408 -687.81 1356.34 -415.782
ITEM: TIMESTEP
210
ITEM: NUMBER OF ATOMS
1
ITEM: BOX BOUNDS mm mm mm
-1.0000000000000000e-03 1.0000000000000000e-03
-1.0000000000000000e-03 1.0000000000000000e-03
-1.0000000000000000e-03 1.0000000000000000e-03
ITEM: ATOMS id x y z vx vy vz
1 0.00011875 -0.000234633 0.000617153 -711.539 1403.13 -435.321
ITEM: TIMESTEP
220
ITEM: NUMBER OF ATOMS
1
ITEM: BOX BOUNDS mm mm mm
-1.0000000000000000e-03 1.0000000000000000e-03
-1.0000000000000000e-03 1.0000000000000000e-03
-1.0000000000000000e-03 1.0000000000000000e-03
ITEM: ATOMS id x y z vx vy vz
1 0.000111522 -0.00022038 0.000612702 -733.831 1447.09 -454.694
ITEM: TIMESTEP
230
ITEM: NUMBER OF ATOMS
1
ITEM: BOX BOUNDS mm mm mm
-1.0000000000000000e-03 1.0000000000000000e-03
-1.0000000000000000e-03 1.0000000000000000e-03
-1.0000000000000000e-03 1.0000000000000000e-03
ITEM: ATOMS id x y z vx vy vz
1 0.000104078 -0.000205701 0.000608059 -754.643 1488.13 -473.895
ITEM: TIMESTEP
240
ITEM: NUMBER OF ATOMS
1
ITEM: BOX BOUNDS mm mm mm
-1.0000000000000000e-03 1.0000000000000000e-03
-1.0000000000000000e-03 1.0000000000000000e-03
-1.0000000000000000e-03 1.0000000000000000e-03
ITEM: ATOMS id x y z vx vy vz
1 9.64337e-05 -0.000190627 0.000603225 -773.936 1526.18 -492.918
ITEM: TIMESTEP
250
ITEM: NUMBER OF ATOMS
1
ITEM: BOX BOUNDS mm mm mm
-1.0000000000000000e-03 1.0000000000000000e-03
-1.0000000000000000e-03 1.0000000000000000e-03
-1.0000000000000000e-03 1.0000000000000000e-03
ITEM: ATOMS id x y z vx vy vz
1 8.86044e-05 -0.000175188 0.000598202 -791.673 1561.15 -511.758
ITEM: TIMESTEP
260
ITEM: NUMBER OF ATOMS
1
ITEM: BOX BOUNDS mm mm mm
-1.0000000000000000e-03 1.0000000000000000e-03
-1.0000000000000000e-03 1.0000000000000000e-03
-1.0000000000000000e-03 1.0000000000000000e-03
ITEM: ATOMS id x y z vx vy vz
1 8.06055e-05 -0.000159414 0.000592991 -807.819 1592.99 -530.408
ITEM: TIMESTEP
270
ITEM: NUMBER OF ATOMS
1
ITEM: BOX BOUNDS mm mm mm
-1.0000000000000000e-03 1.0000000000000000e-03
-1.0000000000000000e-03 1.0000000000000000e-03
-1.0000000000000000e-03 1.0000000000000000e-03
ITEM: ATOMS id x y z vx vy vz
1 7.24533e-05 -0.000143339 0.000587594 -822.344 1621.63 -548.863
ITEM: TIMESTEP
280
ITEM: NUMBER OF ATOMS
1
ITEM: BOX BOUNDS mm mm mm
-1.0000000000000000e-03 1.0000000000000000e-03
-1.0000000000000000e-03 1.0000000000000000e-03
-1.0000000000000000e-03 1.0000000000000000e-03
ITEM: ATOMS id x y z vx vy vz
1 6.41641e-05 -0.000126993 0.000582014 -835.22 1647.02 -567.117
ITEM: TIMESTEP
290
ITEM: NUMBER OF ATOMS
1
ITEM: BOX BOUNDS mm mm mm
-1.0000000000000000e-03 1.0000000000000000e-03
-1.0000000000000000e-03 1.0000000000000000e-03
-1.0000000000000000e-03 1.0000000000000000e-03
ITEM: ATOMS id x y z vx vy vz
1 5.57545e-05 -0.000110409 0.000576252 -846.424 1669.12 -585.164
ITEM: TIMESTEP
300
ITEM: NUMBER OF ATOMS
1
ITEM: BOX BOUNDS mm mm mm
-1.0000000000000000e-03 1.0000000000000000e-03
-1.0000000000000000e-03 1.0000000000000000e-03
-1.0000000000000000e-03 1.0000000000000000e-03
ITEM: ATOMS id x y z vx vy vz
1 4.72412e-05 -9.36212e-05 0.000570311 -855.934 1687.87 -602.998
ITEM: TIMESTEP
310
ITEM: NUMBER OF ATOMS
1
ITEM: BOX BOUNDS mm mm mm
-1.0000000000000000e-03 1.0000000000000000e-03
-1.0000000000000000e-03 1.0000000000000000e-03
-1.0000000000000000e-03 1.0000000000000000e-03
ITEM: ATOMS id x y z vx vy vz
1 3.86414e-05 -7.66627e-05 0.000564193 -863.733 1703.25 -620.615
ITEM: TIMESTEP
320
ITEM: NUMBER OF ATOMS
1
ITEM: BOX BOUNDS mm mm mm
-1.0000000000000000e-03 1.0000000000000000e-03
-1.0000000000000000e-03 1.0000000000000000e-03
-1.0000000000000000e-03 1.0000000000000000e-03
ITEM: ATOMS id x y z vx vy vz
1 2.99722e-05 -5.95674e-05 0.0005579 -869.808 1715.23 -638.009
ITEM: TIMESTEP
330
ITEM: NUMBER OF ATOMS
1
ITEM: BOX BOUNDS mm mm mm
-1.0000000000000000e-03 1.0000000000000000e-03
-1.0000000000000000e-03 1.0000000000000000e-03
-1.0000000000000000e-03 1.0000000000000000e-03
ITEM: ATOMS id x y z vx vy vz
1 2.1251e-05 -4.23694e-05 0.000551434 -874.148 1723.79 -655.174
ITEM: TIMESTEP
340
ITEM: NUMBER OF ATOMS
1
ITEM: BOX BOUNDS mm mm mm
-1.0000000000000000e-03 1.0000000000000000e-03
-1.0000000000000000e-03 1.0000000000000000e-03
-1.0000000000000000e-03 1.0000000000000000e-03
ITEM: ATOMS id x y z vx vy vz
1 1.2495e-05 -2.5103e-05 0.000544797 -876.745 1728.91 -672.105
ITEM: TIMESTEP
350
ITEM: NUMBER OF ATOMS
1
ITEM: BOX BOUNDS mm mm mm
-1.0000000000000000e-03 1.0000000000000000e-03
-1.0000000000000000e-03 1.0000000000000000e-03
-1.0000000000000000e-03 1.0000000000000000e-03
ITEM: ATOMS id x y z vx vy vz
1 3.72185e-06 -7.80255e-06 0.000537992 -877.596 1730.59 -688.798
ITEM: TIMESTEP
360
ITEM: NUMBER OF ATOMS
1
ITEM: BOX BOUNDS mm mm mm
-1.0000000000000000e-03 1.0000000000000000e-03
-1.0000000000000000e-03 1.0000000000000000e-03
-1.0000000000000000e-03 1.0000000000000000e-03
ITEM: ATOMS id x y z vx vy vz
1 -5.05111e-06 9.49743e-06 0.000531022 -876.701 1728.82 -705.246
ITEM: TIMESTEP
370
ITEM: NUMBER OF ATOMS
1
ITEM: BOX BOUNDS mm mm mm
-1.0000000000000000e-03 1.0000000000000000e-03
-1.0000000000000000e-03 1.0000000000000000e-03
-1.0000000000000000e-03 1.0000000000000000e-03
ITEM: ATOMS id x y z vx vy vz
1 -1.38064e-05 2.67626e-05 0.000523888 -874.063 1723.62 -721.445
ITEM: TIMESTEP
380
ITEM: NUMBER OF ATOMS
1
ITEM: BOX BOUNDS mm mm mm
-1.0000000000000000e-03 1.0000000000000000e-03
-1.0000000000000000e-03 1.0000000000000000e-03
-1.0000000000000000e-03 1.0000000000000000e-03
ITEM: ATOMS id x y z vx vy vz
1 -2.25266e-05 4.39586e-05 0.000516594 -869.69 1715 -737.39
ITEM: TIMESTEP
390
ITEM: NUMBER OF ATOMS
1
ITEM: BOX BOUNDS mm mm mm
-1.0000000000000000e-03 1.0000000000000000e-03
-1.0000000000000000e-03 1.0000000000000000e-03
-1.0000000000000000e-03 1.0000000000000000e-03
ITEM: ATOMS id x y z vx vy vz
1 -3.11945e-05 6.10513e-05 0.000509141 -863.591 1702.97 -753.077
ITEM: TIMESTEP
400
ITEM: NUMBER OF ATOMS
1
ITEM: BOX BOUNDS mm mm mm
-1.0000000000000000e-03 1.0000000000000000e-03
-1.0000000000000000e-03 1.0000000000000000e-03
-1.0000000000000000e-03 1.0000000000000000e-03
ITEM: ATOMS id x y z vx vy vz
1 -3.97928e-05 7.80068e-05 0.000501533 -855.78 1687.57 -768.499
ITEM: TIMESTEP
410
ITEM: NUMBER OF ATOMS
1
ITEM: BOX BOUNDS mm mm mm
-1.0000000000000000e-03 1.0000000000000000e-03
-1.0000000000000000e-03 1.0000000000000000e-03
-1.0000000000000000e-03 1.0000000000000000e-03
ITEM: ATOMS id x y z vx vy vz
1 -4.83045e-05 9.47916e-05 0.000493772 -846.274 1668.82 -783.654
ITEM: TIMESTEP
420
ITEM: NUMBER OF ATOMS
1
ITEM: BOX BOUNDS mm mm mm
-1.0000000000000000e-03 1.0000000000000000e-03
-1.0000000000000000e-03 1.0000000000000000e-03
-1.0000000000000000e-03 1.0000000000000000e-03
ITEM: ATOMS id x y z vx vy vz
1 -5.67128e-05 0.000111372 0.000485861 -835.094 1646.78 -798.536
ITEM: TIMESTEP
430
ITEM: NUMBER OF ATOMS
1
ITEM: BOX BOUNDS mm mm mm
-1.0000000000000000e-03 1.0000000000000000e-03
-1.0000000000000000e-03 1.0000000000000000e-03
-1.0000000000000000e-03 1.0000000000000000e-03
ITEM: ATOMS id x y z vx vy vz
1 -6.50009e-05 0.000127716 0.000477803 -822.263 1621.47 -813.14
ITEM: TIMESTEP
440
ITEM: NUMBER OF ATOMS
1
ITEM: BOX BOUNDS mm mm mm
-1.0000000000000000e-03 1.0000000000000000e-03
-1.0000000000000000e-03 1.0000000000000000e-03
-1.0000000000000000e-03 1.0000000000000000e-03
ITEM: ATOMS id x y z vx vy vz
1 -7.31527e-05 0.000143791 0.000469599 -807.808 1592.97 -827.463
ITEM: TIMESTEP
450
ITEM: NUMBER OF ATOMS
1
ITEM: BOX BOUNDS mm mm mm
-1.0000000000000000e-03 1.0000000000000000e-03
-1.0000000000000000e-03 1.0000000000000000e-03
-1.0000000000000000e-03 1.0000000000000000e-03
ITEM: ATOMS id x y z vx vy vz
1 -8.11518e-05 0.000159565 0.000461254 -791.76 1561.32 -841.5
ITEM: TIMESTEP
460
ITEM: NUMBER OF ATOMS
1
ITEM: BOX BOUNDS mm mm mm
-1.0000000000000000e-03 1.0000000000000000e-03
-1.0000000000000000e-03 1.0000000000000000e-03
-1.0000000000000000e-03 1.0000000000000000e-03
ITEM: ATOMS id x y z vx vy vz
1 -8.89827e-05 0.000175008 0.00045277 -774.152 1526.6 -855.247
ITEM: TIMESTEP
470
ITEM: NUMBER OF ATOMS
1
ITEM: BOX BOUNDS mm mm mm
-1.0000000000000000e-03 1.0000000000000000e-03
-1.0000000000000000e-03 1.0000000000000000e-03
-1.0000000000000000e-03 1.0000000000000000e-03
ITEM: ATOMS id x y z vx vy vz
1 -9.66299e-05 0.000190088 0.00044415 -755.021 1488.87 -868.7
ITEM: TIMESTEP
480
ITEM: NUMBER OF ATOMS
1
ITEM: BOX BOUNDS mm mm mm
-1.0000000000000000e-03 1.0000000000000000e-03
-1.0000000000000000e-03 1.0000000000000000e-03
-1.0000000000000000e-03 1.0000000000000000e-03
ITEM: ATOMS id x y z vx vy vz
1 -0.000104078 0.000204775 0.000435397 -734.405 1448.22 -881.855
ITEM: TIMESTEP
490
ITEM: NUMBER OF ATOMS
1
ITEM: BOX BOUNDS mm mm mm
-1.0000000000000000e-03 1.0000000000000000e-03
-1.0000000000000000e-03 1.0000000000000000e-03
-1.0000000000000000e-03 1.0000000000000000e-03
ITEM: ATOMS id x y z vx vy vz
1 -0.000111313 0.000219043 0.000426514 -712.347 1404.72 -894.708
ITEM: TIMESTEP
500
ITEM: NUMBER OF ATOMS
1
ITEM: BOX BOUNDS mm mm mm
-1.0000000000000000e-03 1.0000000000000000e-03
-1.0000000000000000e-03 1.0000000000000000e-03
-1.0000000000000000e-03 1.0000000000000000e-03
ITEM: ATOMS id x y z vx vy vz
1 -0.000118321 0.000232861 0.000417504 -688.893 1358.47 -907.255
ITEM: TIMESTEP
510
ITEM: NUMBER OF ATOMS
1
ITEM: BOX BOUNDS mm mm mm
-1.0000000000000000e-03 1.0000000000000000e-03
-1.0000000000000000e-03 1.0000000000000000e-03
-1.0000000000000000e-03 1.0000000000000000e-03
ITEM: ATOMS id x y z vx vy vz
1 -0.000125087 0.000246203 0.00040837 -664.09 1309.56 -919.492
ITEM: TIMESTEP
520
ITEM: NUMBER OF ATOMS
1
ITEM: BOX BOUNDS mm mm mm
-1.0000000000000000e-03 1.0000000000000000e-03
-1.0000000000000000e-03 1.0000000000000000e-03
-1.0000000000000000e-03 1.0000000000000000e-03
ITEM: ATOMS id x y z vx vy vz
1 -0.000131598 0.000259044 0.000399115 -637.988 1258.09 -931.417
ITEM: TIMESTEP
530
ITEM: NUMBER OF ATOMS
1
ITEM: BOX BOUNDS mm mm mm
-1.0000000000000000e-03 1.0000000000000000e-03
-1.0000000000000000e-03 1.0000000000000000e-03
-1.0000000000000000e-03 1.0000000000000000e-03
ITEM: ATOMS id x y z vx vy vz
1 -0.000137842 0.000271357 0.000389743 -610.641 1204.16 -943.025
ITEM: TIMESTEP
540
ITEM: NUMBER OF ATOMS
1
ITEM: BOX BOUNDS mm mm mm
-1.0000000000000000e-03 1.0000000000000000e-03
-1.0000000000000000e-03 1.0000000000000000e-03
-1.0000000000000000e-03 1.0000000000000000e-03
ITEM: ATOMS id x y z vx vy vz
1 -0.000143807 0.000283119 0.000380256 -582.105 1147.89 -954.314
ITEM: TIMESTEP
550
ITEM: NUMBER OF ATOMS
1
ITEM: BOX BOUNDS mm mm mm
-1.0000000000000000e-03 1.0000000000000000e-03
-1.0000000000000000e-03 1.0000000000000000e-03
-1.0000000000000000e-03 1.0000000000000000e-03
ITEM: ATOMS id x y z vx vy vz
1 -0.000149481 0.000294307 0.000370658 -552.437 1089.39 -965.279
ITEM: TIMESTEP
560
ITEM: NUMBER OF ATOMS
1
ITEM: BOX BOUNDS mm mm mm
-1.0000000000000000e-03 1.0000000000000000e-03
-1.0000000000000000e-03 1.0000000000000000e-03
-1.0000000000000000e-03 1.0000000000000000e-03
ITEM: ATOMS id x y z vx vy vz
1 -0.000154852 0.0003049 0.000360951 -521.697 1028.77 -975.918
ITEM: TIMESTEP
570
ITEM: NUMBER OF ATOMS
1
ITEM: BOX BOUNDS mm mm mm
-1.0000000000000000e-03 1.0000000000000000e-03
-1.0000000000000000e-03 1.0000000000000000e-03
-1.0000000000000000e-03 1.0000000000000000e-03
ITEM: ATOMS id x y z vx vy vz
1 -0.000159911 0.000314876 0.00035114 -489.947 966.159 -986.228
ITEM: TIMESTEP
580
ITEM: NUMBER OF ATOMS
1
ITEM: BOX BOUNDS mm mm mm
-1.0000000000000000e-03 1.0000000000000000e-03
-1.0000000000000000e-03 1.0000000000000000e-03
-1.0000000000000000e-03 1.0000000000000000e-03
ITEM: ATOMS id x y z vx vy vz
1 -0.000164648 0.000324217 0.000341228 -457.252 901.685 -996.206
ITEM: TIMESTEP
590
ITEM: NUMBER OF ATOMS
1
ITEM: BOX BOUNDS mm mm mm
-1.0000000000000000e-03 1.0000000000000000e-03
-1.0000000000000000e-03 1.0000000000000000e-03
-1.0000000000000000e-03 1.0000000000000000e-03
ITEM: ATOMS id x y z vx vy vz
1 -0.000169053 0.000332904 0.000331217 -423.677 835.476 -1005.85
ITEM: TIMESTEP
600
ITEM: NUMBER OF ATOMS
1
ITEM: BOX BOUNDS mm mm mm
-1.0000000000000000e-03 1.0000000000000000e-03
-1.0000000000000000e-03 1.0000000000000000e-03
-1.0000000000000000e-03 1.0000000000000000e-03
ITEM: ATOMS id x y z vx vy vz
1 -0.000173119 0.000340921 0.000321112 -389.289 767.665 -1015.15
ITEM: TIMESTEP
610
ITEM: NUMBER OF ATOMS
1
ITEM: BOX BOUNDS mm mm mm
-1.0000000000000000e-03 1.0000000000000000e-03
-1.0000000000000000e-03 1.0000000000000000e-03
-1.0000000000000000e-03 1.0000000000000000e-03
ITEM: ATOMS id x y z vx vy vz
1 -0.000176837 0.000348253 0.000310915 -354.159 698.389 -1024.12
ITEM: TIMESTEP
620
ITEM: NUMBER OF ATOMS
1
ITEM: BOX BOUNDS mm mm mm
-1.0000000000000000e-03 1.0000000000000000e-03
-1.0000000000000000e-03 1.0000000000000000e-03
-1.0000000000000000e-03 1.0000000000000000e-03
ITEM: ATOMS id x y z vx vy vz
1 -0.0001802 0.000354885 0.000300631 -318.356 627.787 -1032.74
ITEM: TIMESTEP
630
ITEM: NUMBER OF ATOMS
1
ITEM: BOX BOUNDS mm mm mm
-1.0000000000000000e-03 1.0000000000000000e-03
-1.0000000000000000e-03 1.0000000000000000e-03
-1.0000000000000000e-03 1.0000000000000000e-03
ITEM: ATOMS id x y z vx vy vz
1 -0.000183202 0.000360804 0.000290262 -281.952 556 -1041.02
ITEM: TIMESTEP
640
ITEM: NUMBER OF ATOMS
1
ITEM: BOX BOUNDS mm mm mm
-1.0000000000000000e-03 1.0000000000000000e-03
-1.0000000000000000e-03 1.0000000000000000e-03
-1.0000000000000000e-03 1.0000000000000000e-03
ITEM: ATOMS id x y z vx vy vz
1 -0.000185837 0.000366001 0.000279811 -245.021 483.172 -1048.95
ITEM: TIMESTEP
650
ITEM: NUMBER OF ATOMS
1
ITEM: BOX BOUNDS mm mm mm
-1.0000000000000000e-03 1.0000000000000000e-03
-1.0000000000000000e-03 1.0000000000000000e-03
-1.0000000000000000e-03 1.0000000000000000e-03
ITEM: ATOMS id x y z vx vy vz
1 -0.000188101 0.000370465 0.000269284 -207.635 409.45 -1056.53
ITEM: TIMESTEP
660
ITEM: NUMBER OF ATOMS
1
ITEM: BOX BOUNDS mm mm mm
-1.0000000000000000e-03 1.0000000000000000e-03
-1.0000000000000000e-03 1.0000000000000000e-03
-1.0000000000000000e-03 1.0000000000000000e-03
ITEM: ATOMS id x y z vx vy vz
1 -0.000189989 0.000374188 0.000258682 -169.871 334.979 -1063.76
ITEM: TIMESTEP
670
ITEM: NUMBER OF ATOMS
1
ITEM: BOX BOUNDS mm mm mm
-1.0000000000000000e-03 1.0000000000000000e-03
-1.0000000000000000e-03 1.0000000000000000e-03
-1.0000000000000000e-03 1.0000000000000000e-03
ITEM: ATOMS id x y z vx vy vz
1 -0.000191497 0.000377163 0.00024801 -131.803 259.91 -1070.64
ITEM: TIMESTEP
680
ITEM: NUMBER OF ATOMS
1
ITEM: BOX BOUNDS mm mm mm
-1.0000000000000000e-03 1.0000000000000000e-03
-1.0000000000000000e-03 1.0000000000000000e-03
-1.0000000000000000e-03 1.0000000000000000e-03
ITEM: ATOMS id x y z vx vy vz
1 -0.000192624 0.000379384 0.00023727 -93.5067 184.392 -1077.16
ITEM: TIMESTEP
690
ITEM: NUMBER OF ATOMS
1
ITEM: BOX BOUNDS mm mm mm
-1.0000000000000000e-03 1.0000000000000000e-03
-1.0000000000000000e-03 1.0000000000000000e-03
-1.0000000000000000e-03 1.0000000000000000e-03
ITEM: ATOMS id x y z vx vy vz
1 -0.000193367 0.000380849 0.000226468 -55.0595 108.575 -1083.33
ITEM: TIMESTEP
700
ITEM: NUMBER OF ATOMS
1
ITEM: BOX BOUNDS mm mm mm
-1.0000000000000000e-03 1.0000000000000000e-03
-1.0000000000000000e-03 1.0000000000000000e-03
-1.0000000000000000e-03 1.0000000000000000e-03
ITEM: ATOMS id x y z vx vy vz
1 -0.000193725 0.000381555 0.000215605 -16.5375 32.6113 -1089.13
ITEM: TIMESTEP
710
ITEM: NUMBER OF ATOMS
1
ITEM: BOX BOUNDS mm mm mm
-1.0000000000000000e-03 1.0000000000000000e-03
-1.0000000000000000e-03 1.0000000000000000e-03
-1.0000000000000000e-03 1.0000000000000000e-03
ITEM: ATOMS id x y z vx vy vz
1 -0.000193698 0.000381502 0.000204686 21.9826 -43.3489 -1094.58
ITEM: TIMESTEP
720
ITEM: NUMBER OF ATOMS
1
ITEM: BOX BOUNDS mm mm mm
-1.0000000000000000e-03 1.0000000000000000e-03
-1.0000000000000000e-03 1.0000000000000000e-03
-1.0000000000000000e-03 1.0000000000000000e-03
ITEM: ATOMS id x y z vx vy vz
1 -0.000193285 0.000380689 0.000193715 60.4241 -119.154 -1099.67
ITEM: TIMESTEP
730
ITEM: NUMBER OF ATOMS
1
ITEM: BOX BOUNDS mm mm mm
-1.0000000000000000e-03 1.0000000000000000e-03
-1.0000000000000000e-03 1.0000000000000000e-03
-1.0000000000000000e-03 1.0000000000000000e-03
ITEM: ATOMS id x y z vx vy vz
1 -0.00019249 0.00037912 0.000182694 98.7107 -194.654 -1104.39
ITEM: TIMESTEP
740
ITEM: NUMBER OF ATOMS
1
ITEM: BOX BOUNDS mm mm mm
-1.0000000000000000e-03 1.0000000000000000e-03
-1.0000000000000000e-03 1.0000000000000000e-03
-1.0000000000000000e-03 1.0000000000000000e-03
ITEM: ATOMS id x y z vx vy vz
1 -0.000191312 0.000376797 0.000171628 136.766 -269.698 -1108.75
ITEM: TIMESTEP
750
ITEM: NUMBER OF ATOMS
1
ITEM: BOX BOUNDS mm mm mm
-1.0000000000000000e-03 1.0000000000000000e-03
-1.0000000000000000e-03 1.0000000000000000e-03
-1.0000000000000000e-03 1.0000000000000000e-03
ITEM: ATOMS id x y z vx vy vz
1 -0.000189755 0.000373728 0.00016052 174.516 -344.139 -1112.75
ITEM: TIMESTEP
760
ITEM: NUMBER OF ATOMS
1
ITEM: BOX BOUNDS mm mm mm
-1.0000000000000000e-03 1.0000000000000000e-03
-1.0000000000000000e-03 1.0000000000000000e-03
-1.0000000000000000e-03 1.0000000000000000e-03
ITEM: ATOMS id x y z vx vy vz
1 -0.000187823 0.000369917 0.000149374 211.884 -417.827 -1116.38
ITEM: TIMESTEP
770
ITEM: NUMBER OF ATOMS
1
ITEM: BOX BOUNDS mm mm mm
-1.0000000000000000e-03 1.0000000000000000e-03
-1.0000000000000000e-03 1.0000000000000000e-03
-1.0000000000000000e-03 1.0000000000000000e-03
ITEM: ATOMS id x y z vx vy vz
1 -0.000185519 0.000365374 0.000138194 248.797 -490.618 -1119.65
ITEM: TIMESTEP
780
ITEM: NUMBER OF ATOMS
1
ITEM: BOX BOUNDS mm mm mm
-1.0000000000000000e-03 1.0000000000000000e-03
-1.0000000000000000e-03 1.0000000000000000e-03
-1.0000000000000000e-03 1.0000000000000000e-03
ITEM: ATOMS id x y z vx vy vz
1 -0.000182849 0.000360108 0.000126983 285.181 -562.368 -1122.55
ITEM: TIMESTEP
790
ITEM: NUMBER OF ATOMS
1
ITEM: BOX BOUNDS mm mm mm
-1.0000000000000000e-03 1.0000000000000000e-03
-1.0000000000000000e-03 1.0000000000000000e-03
-1.0000000000000000e-03 1.0000000000000000e-03
ITEM: ATOMS id x y z vx vy vz
1 -0.000179817 0.000354131 0.000115744 320.966 -632.934 -1125.08
ITEM: TIMESTEP
800
ITEM: NUMBER OF ATOMS
1
ITEM: BOX BOUNDS mm mm mm
-1.0000000000000000e-03 1.0000000000000000e-03
-1.0000000000000000e-03 1.0000000000000000e-03
-1.0000000000000000e-03 1.0000000000000000e-03
ITEM: ATOMS id x y z vx vy vz
1 -0.000176432 0.000347454 0.000104482 356.08 -702.178 -1127.25
ITEM: TIMESTEP
810
ITEM: NUMBER OF ATOMS
1
ITEM: BOX BOUNDS mm mm mm
-1.0000000000000000e-03 1.0000000000000000e-03
-1.0000000000000000e-03 1.0000000000000000e-03
-1.0000000000000000e-03 1.0000000000000000e-03
ITEM: ATOMS id x y z vx vy vz
1 -0.000172698 0.000340092 9.32004e-05 390.454 -769.962 -1129.05
ITEM: TIMESTEP
820
ITEM: NUMBER OF ATOMS
1
ITEM: BOX BOUNDS mm mm mm
-1.0000000000000000e-03 1.0000000000000000e-03
-1.0000000000000000e-03 1.0000000000000000e-03
-1.0000000000000000e-03 1.0000000000000000e-03
ITEM: ATOMS id x y z vx vy vz
1 -0.000168625 0.00033206 8.19024e-05 424.021 -836.155 -1130.48
ITEM: TIMESTEP
830
ITEM: NUMBER OF ATOMS
1
ITEM: BOX BOUNDS mm mm mm
-1.0000000000000000e-03 1.0000000000000000e-03
-1.0000000000000000e-03 1.0000000000000000e-03
-1.0000000000000000e-03 1.0000000000000000e-03
ITEM: ATOMS id x y z vx vy vz
1 -0.000164221 0.000323374 7.0592e-05 456.714 -900.624 -1131.54
ITEM: TIMESTEP
840
ITEM: NUMBER OF ATOMS
1
ITEM: BOX BOUNDS mm mm mm
-1.0000000000000000e-03 1.0000000000000000e-03
-1.0000000000000000e-03 1.0000000000000000e-03
-1.0000000000000000e-03 1.0000000000000000e-03
ITEM: ATOMS id x y z vx vy vz
1 -0.000159494 0.000314053 5.92728e-05 488.469 -963.244 -1132.24
ITEM: TIMESTEP
850
ITEM: NUMBER OF ATOMS
1
ITEM: BOX BOUNDS mm mm mm
-1.0000000000000000e-03 1.0000000000000000e-03
-1.0000000000000000e-03 1.0000000000000000e-03
-1.0000000000000000e-03 1.0000000000000000e-03
ITEM: ATOMS id x y z vx vy vz
1 -0.000154455 0.000304116 4.79485e-05 519.224 -1023.89 -1132.57
ITEM: TIMESTEP
860
ITEM: NUMBER OF ATOMS
1
ITEM: BOX BOUNDS mm mm mm
-1.0000000000000000e-03 1.0000000000000000e-03
-1.0000000000000000e-03 1.0000000000000000e-03
-1.0000000000000000e-03 1.0000000000000000e-03
ITEM: ATOMS id x y z vx vy vz
1 -0.000149113 0.000293582 3.66227e-05 548.919 -1082.45 -1132.53
ITEM: TIMESTEP
870
ITEM: NUMBER OF ATOMS
1
ITEM: BOX BOUNDS mm mm mm
-1.0000000000000000e-03 1.0000000000000000e-03
-1.0000000000000000e-03 1.0000000000000000e-03
-1.0000000000000000e-03 1.0000000000000000e-03
ITEM: ATOMS id x y z vx vy vz
1 -0.00014348 0.000282474 2.52991e-05 577.495 -1138.8 -1132.13
ITEM: TIMESTEP
880
ITEM: NUMBER OF ATOMS
1
ITEM: BOX BOUNDS mm mm mm
-1.0000000000000000e-03 1.0000000000000000e-03
-1.0000000000000000e-03 1.0000000000000000e-03
-1.0000000000000000e-03 1.0000000000000000e-03
ITEM: ATOMS id x y z vx vy vz
1 -0.000137567 0.000270814 1.39813e-05 604.897 -1192.84 -1131.36
ITEM: TIMESTEP
890
ITEM: NUMBER OF ATOMS
1
ITEM: BOX BOUNDS mm mm mm
-1.0000000000000000e-03 1.0000000000000000e-03
-1.0000000000000000e-03 1.0000000000000000e-03
-1.0000000000000000e-03 1.0000000000000000e-03
ITEM: ATOMS id x y z vx vy vz
1 -0.000131386 0.000258626 2.67307e-06 631.071 -1244.45 -1130.23
ITEM: TIMESTEP
900
ITEM: NUMBER OF ATOMS
1
ITEM: BOX BOUNDS mm mm mm
-1.0000000000000000e-03 1.0000000000000000e-03
-1.0000000000000000e-03 1.0000000000000000e-03
-1.0000000000000000e-03 1.0000000000000000e-03
ITEM: ATOMS id x y z vx vy vz
1 -0.00012495 0.000245933 -8.62203e-06 655.967 -1293.54 -1128.73
ITEM: TIMESTEP
910
ITEM: NUMBER OF ATOMS
1
ITEM: BOX BOUNDS mm mm mm
-1.0000000000000000e-03 1.0000000000000000e-03
-1.0000000000000000e-03 1.0000000000000000e-03
-1.0000000000000000e-03 1.0000000000000000e-03
ITEM: ATOMS id x y z vx vy vz
1 -0.000118271 0.000232763 -1.99003e-05 679.535 -1340.02 -1126.87
ITEM: TIMESTEP
920
ITEM: NUMBER OF ATOMS
1
ITEM: BOX BOUNDS mm mm mm
-1.0000000000000000e-03 1.0000000000000000e-03
-1.0000000000000000e-03 1.0000000000000000e-03
-1.0000000000000000e-03 1.0000000000000000e-03
ITEM: ATOMS id x y z vx vy vz
1 -0.000111364 0.000219142 -3.11582e-05 701.731 -1383.79 -1124.65
ITEM: TIMESTEP
930
ITEM: NUMBER OF ATOMS
1
ITEM: BOX BOUNDS mm mm mm
-1.0000000000000000e-03 1.0000000000000000e-03
-1.0000000000000000e-03 1.0000000000000000e-03
-1.0000000000000000e-03 1.0000000000000000e-03
ITEM: ATOMS id x y z vx vy vz
1 -0.000104241 0.000205097 -4.23921e-05 722.511 -1424.77 -1122.06
ITEM: TIMESTEP
940
ITEM: NUMBER OF ATOMS
1
ITEM: BOX BOUNDS mm mm mm
-1.0000000000000000e-03 1.0000000000000000e-03
-1.0000000000000000e-03 1.0000000000000000e-03
-1.0000000000000000e-03 1.0000000000000000e-03
ITEM: ATOMS id x y z vx vy vz
1 -9.69182e-05 0.000190656 -5.35983e-05 741.835 -1462.87 -1119.12
ITEM: TIMESTEP
950
ITEM: NUMBER OF ATOMS
1
ITEM: BOX BOUNDS mm mm mm
-1.0000000000000000e-03 1.0000000000000000e-03
-1.0000000000000000e-03 1.0000000000000000e-03
-1.0000000000000000e-03 1.0000000000000000e-03
ITEM: ATOMS id x y z vx vy vz
1 -8.94094e-05 0.000175849 -6.47733e-05 759.667 -1498.04 -1115.82
ITEM: TIMESTEP
960
ITEM: NUMBER OF ATOMS
1
ITEM: BOX BOUNDS mm mm mm
-1.0000000000000000e-03 1.0000000000000000e-03
-1.0000000000000000e-03 1.0000000000000000e-03
-1.0000000000000000e-03 1.0000000000000000e-03
ITEM: ATOMS id x y z vx vy vz
1 -8.17299e-05 0.000160705 -7.59135e-05 775.972 -1530.19 -1112.16
ITEM: TIMESTEP
970
ITEM: NUMBER OF ATOMS
1
ITEM: BOX BOUNDS mm mm mm
-1.0000000000000000e-03 1.0000000000000000e-03
-1.0000000000000000e-03 1.0000000000000000e-03
-1.0000000000000000e-03 1.0000000000000000e-03
ITEM: ATOMS id x y z vx vy vz
1 -7.38951e-05 0.000145255 -8.70154e-05 790.719 -1559.27 -1108.15
ITEM: TIMESTEP
980
ITEM: NUMBER OF ATOMS
1
ITEM: BOX BOUNDS mm mm mm
-1.0000000000000000e-03 1.0000000000000000e-03
-1.0000000000000000e-03 1.0000000000000000e-03