ITEM: TIMESTEP
0
ITEM: NUMBER OF ATOMS
50
ITEM: BOX BOUNDS mm mm mm
-1.0000000000000000e-03 1.0000000000000000e-03
-1.0000000000000000e-03 1.0000000000000000e-03
-1.0000000000000000e-03 1.0000000000000000e-03
ITEM: ATOMS id x y z vx vy vz
1 -0.000713612 -0.000381866 -0.000215689 0 0 0
2 0.0004923 0.00057634 0.000211718 0 0 0
3 0.000151564 -0.000154313 -0.000111558 0 0 0
4 -0.000297364 -0.000204894 -0.000567363 0 0 0
5 -4.4459e-05 -2.83627e-05 0.000164803 0 0 0
6 -8.32466e-05 -2.62689e-06 -0.000641045 0 0 0
7 0.000150455 0.000535976 0.000807261 0 0 0
8 7.61833e-05 8.08476e-05 0.000469247 0 0 0
9 3.75684e-05 -6.38719e-05 -8.69588e-05 0 0 0
10 8.76976e-05 8.26272e-05 -0.000693043 0 0 0
11 4.08493e-05 -6.76078e-05 0.000157374 0 0 0
12 0.000606786 -0.000429362 -3.76673e-05 0 0 0
13 0.00066913 0.000133741 0.000145191 0 0 0
14 -0.000111002 0.000229845 -0.000704173 0 0 0
15 4.73211e-06 -6.90844e-05 8.73698e-05 0 0 0
16 1.29242e-07 1.52988e-07 8.65622e-05 0 0 0
17 -0.000233131 -0.000346971 -0.00015956 0 0 0
18 0.000156923 0.000103877 0.000878246 0 0 0
19 0.000611297 -0.000544143 -0.000473542 0 0 0
20 0.000235556 3.49343e-05 -0.000344368 0 0 0
21 3.24591e-05 5.3949e-05 -0.000388815 0 0 0
22 -0.000118552 8.75351e-05 0.000651374 0 0 0
23 0.000110712 0.000405581 -0.000447614 0 0 0
24 -5.39917e-05 7.98779e-06 0.000177551 0 0 0
25 -0.000449849 -0.000101526 0.00047688 0 0 0
26 9.56269e-05 -0.000278302 -0.000226517 0 0 0
27 -0.000133567 0.000145314 -0.000710235 0 0 0
28 0.00023094 3.86771e-05 0.000301665 0 0 0
29 0.000391919 -0.000158531 0.000164224 0 0 0
30 -5.79401e-05 9.20332e-05 -0.00087323 0 0 0
31 -7.72501e-07 0.00034426 -0.000326179 0 0 0
32 -0.000206668 -0.00021838 9.84164e-05 0 0 0
33 3.21342e-05 -5.75063e-05 -0.00065628 0 0 0
34 -0.000173455 0.000385647 0.00035002 0 0 0
35 0.000345773 -0.000102939 -0.000224946 0 0 0
36 0.000501367 0.000237403 -0.000247749 0 0 0
37 -3.75373e-06 -5.7278e-05 0.000762145 0 0 0
38 7.11834e-05 0.000191663 0.000245457 0 0 0
39 0.000146977 -0.000667364 -0.000488779 0 0 0
40 -0.00022755 -3.02273e-05 -0.000193644 0 0 0
41 -2.4572e-06 1.02652e-06 3.69823e-06 0 0 0
42 0.000215522 -0.000397386 -3.37738e-05 0 0 0
43 0.000447374 -0.000188752 0.000197633 0 0 0
44 0.00013958 6.59223e-05 -0.000605945 0 0 0
45 5.48281e-09 -4.10911e-08 -6.97074e-07 0 0 0
46 -0.000193165 -0.000316294 -0.000305877 0 0 0
47 -4.79378e-05 4.50098e-05 -0.000801784 0 0 0
48 0.000257556 0.000109247 -0.000162379 0 0 0
49 -0.000249725 2.74611e-05 -0.000228638 0 0 0
50 0.000244159 -0.000110729 8.80846e-05 0 0 0
ITEM: TIMESTEP
10
ITEM: NUMBER OF ATOMS
50
ITEM: BOX BOUNDS mm mm mm
-1.0000000000000000e-03 1.0000000000000000e-03
-1.0000000000000000e-03 1.0000000000000000e-03
-1.0000000000000000e-03 1.0000000000000000e-03
ITEM: ATOMS id x y z vx vy vz
1 -0.000330104 -0.000176644 -0.000204609 6881.75 3682.55 219.643
2 0.000227728 0.000266605 0.000200843 -4747.54 -5557.96 -215.573
3 7.01161e-05 -7.13877e-05 -0.00010583 -1461.49 1488.01 113.525
4 -0.000137559 -9.47824e-05 -0.00053822 2867.58 1975.86 577.71
5 -2.05734e-05 -1.31658e-05 0.00015634 428.596 272.461 -167.936
6 -3.85166e-05 -1.21843e-06 -0.000608113 802.593 25.2681 652.852
7 6.95973e-05 0.000247932 0.000765793 -1450.93 -5168.74 -822.032
8 3.52411e-05 3.73994e-05 0.000445149 -734.676 -779.649 -477.705
9 1.73785e-05 -2.95495e-05 -8.25056e-05 -362.322 615.917 88.2716
10 4.05725e-05 3.82266e-05 -0.000657451 -845.575 -796.719 705.526
11 1.89151e-05 -3.1288e-05 0.000149314 -393.506 651.667 -159.758
12 0.00028069 -0.000198616 -3.57321e-05 -5851.54 4140.55 38.3614
13 0.000309529 6.1867e-05 0.000137734 -6452.76 -1289.71 -147.82
14 -5.13484e-05 0.00010634 -0.000668001 1070.45 -2216.09 717.063
15 2.18784e-06 -3.19882e-05 8.28764e-05 -45.6522 665.515 -89.0829
16 5.96932e-08 9.782e-08 8.21215e-05 -1.28008 -0.816537 -88.0691
17 -0.000107846 -0.000160507 -0.000151361 2248.12 3345.93 162.523
18 7.25905e-05 4.80517e-05 0.000833134 -1513.29 -1001.75 -894.273
19 0.000282774 -0.00025171 -0.000449218 -5895.1 5247.5 482.193
20 0.000108968 1.61612e-05 -0.000326682 -2271.51 -336.869 350.571
21 1.50131e-05 2.49572e-05 -0.000368843 -313.07 -520.24 395.88
22 -5.48426e-05 4.04932e-05 0.000617916 1143.22 -844.133 -663.253
23 5.12152e-05 0.000187619 -0.000424623 -1067.63 -3911.14 455.751
24 -2.50028e-05 3.75231e-06 0.00016847 520.064 -75.6976 -179.743
25 -0.000208093 -4.69646e-05 0.000452385 4338.12 979.069 -485.568
26 4.42354e-05 -0.000128744 -0.000214886 -922.179 2683.69 230.546
27 -6.17957e-05 6.72153e-05 -0.000673753 1287.83 -1401.49 723.171
28 0.000106833 1.78929e-05 0.000286176 -2226.99 -372.959 -307.009
29 0.000181289 -7.33295e-05 0.000155783 -3779.62 1528.89 -167.36
30 -2.68035e-05 4.25776e-05 -0.000828391 558.726 -887.447 888.826
31 -3.59933e-07 0.000159253 -0.000309422 7.39556 -3319.79 332.182
32 -9.56086e-05 -0.000101024 9.33644e-05 1992.83 2105.82 -100.141
33 1.48686e-05 -2.66122e-05 -0.00062257 -309.79 554.31 668.244
34 -8.0239e-05 0.000178396 0.000332042 1672.67 -3718.96 -356.376
35 0.000159955 -4.762e-05 -0.000213394 -3334.34 992.654 228.995
36 0.000231927 0.000109821 -0.000235023 -4834.89 -2289.35 252.259
37 -1.73665e-06 -2.64981e-05 0.000722998 36.1952 552.316 -776.038
38 3.29287e-05 8.86684e-05 0.000232853 -686.454 -1848.13 -249.828
39 6.79883e-05 -0.000308711 -0.000463672 -1417.39 6435.75 497.702
40 -0.000105262 -1.39937e-05 -0.000183689 2194.36 291.274 197.398
41 -2.10285e-06 9.01865e-07 5.51061e-06 10.4715 -4.01078 29.9007
42 9.96979e-05 -0.00018383 -3.20376e-05 -2078.36 3832.06 34.4186
43 0.000206963 -8.73221e-05 0.000187494 -4313.93 1820.05 -200.904
44 6.45765e-05 3.04957e-05 -0.000574813 -1345.85 -635.692 617.156
45 9.59829e-07 -4.25938e-07 -2.69432e-06 12.9826 -5.10179 -33.5681
46 -8.93568e-05 -0.000146315 -0.000290169 1862.74 3050.12 311.368
47 -2.21749e-05 2.08136e-05 -0.0007606 462.298 -434.192 816.387
48 0.000119144 5.05412e-05 -0.000154037 -2483.68 -1053.4 165.35
49 -0.000115529 1.27182e-05 -0.000216904 2408.01 -264.496 232.532
50 0.000112949 -5.12233e-05 8.35617e-05 -2354.42 1067.78 -89.6679
ITEM: TIMESTEP
20
ITEM: NUMBER OF ATOMS
50
ITEM: BOX BOUNDS mm mm mm
-1.0000000000000000e-03 1.0000000000000000e-03
-1.0000000000000000e-03 1.0000000000000000e-03
-1.0000000000000000e-03 1.0000000000000000e-03
ITEM: ATOMS id x y z vx vy vz
1 0.00040819 0.000218432 -0.000172514 6366.71 3406.93 416.598
2 -0.000281608 -0.000329672 0.000169361 -4392.27 -5142.06 -408.563
3 -8.66782e-05 8.8253e-05 -8.92679e-05 -1352.35 1376.87 214.849
4 0.000170089 0.000117198 -0.000453774 2653.13 1828.09 1096.28
5 2.53617e-05 1.60875e-05 0.000131769 396.604 253.668 -319.195
6 4.75809e-05 1.49783e-06 -0.00051261 742.934 23.4534 1240.17
7 -8.60659e-05 -0.000306596 0.000645656 -1342.35 -4781.95 -1559.5
8 -4.35713e-05 -4.62439e-05 0.000375335 -679.632 -721.294 -906.239
9 -2.15001e-05 3.65382e-05 -6.95591e-05 -335.121 569.834 168.245
10 -5.01255e-05 -4.72606e-05 -0.000554304 -782.486 -737.326 1339.1
11 -2.32924e-05 3.86182e-05 0.000125675 -365 603.505 -308.146
12 -0.000347073 0.000245599 -3.01358e-05 -5413.58 3830.76 72.6042
13 -0.000382739 -7.64918e-05 0.000116109 -5969.9 -1193.21 -280.805
14 6.34981e-05 -0.000131356 -0.000562981 990.3 -2050.92 1364.33
15 -2.72396e-06 3.90886e-05 7.00714e-05 -42.4826 614.494 -165.226
16 -1.26398e-07 3.79281e-07 6.89181e-05 -1.497 0.850099 -172.938
17 0.000133339 0.000198456 -0.000127587 2080.01 3095.71 308.716
18 -8.97635e-05 -5.94218e-05 0.000702446 -1400.07 -926.78 -1696.44
19 -0.000349674 0.000311267 -0.000378741 -5453.92 4854.82 914.879
20 -0.000134727 -1.99846e-05 -0.000275466 -2101.67 -311.718 664.743
21 -1.85757e-05 -3.08585e-05 -0.000311014 -289.555 -481.336 750.55
22 6.78104e-05 -5.00707e-05 0.00052098 1057.74 -780.992 -1258.36
23 -6.33277e-05 -0.000231987 -0.000358026 -987.794 -3618.62 864.437
24 3.07833e-05 -4.37218e-06 0.000142558 482.039 -72.1092 -334.479
25 0.000257316 5.80723e-05 0.000381432 4013.48 905.797 -921.006
26 -5.47111e-05 0.000159151 -0.000181213 -853.321 2482.81 436.998
27 7.63521e-05 -8.31959e-05 -0.000568416 1191.83 -1296.38 1365.75
28 -0.000132092 -2.2123e-05 0.000241336 -2060.5 -345.077 -581.903
29 -0.000224171 9.06789e-05 0.000131317 -3496.31 1414.25 -317.669
30 3.31408e-05 -5.26364e-05 -0.000698503 516.95 -821.152 1686
31 4.32128e-07 -0.000196904 -0.000260871 6.91458 -3071.5 630.264
32 0.000118162 0.000124879 7.8787e-05 1843.81 1948.35 -188.971
33 -1.8359e-05 3.2853e-05 -0.000524968 -286.828 513.292 1266.7
34 9.92141e-05 -0.000220593 0.000279977 1547.59 -3440.77 -675.765
35 -0.00019774 5.88899e-05 -0.000179922 -3084.72 918.603 434.509
36 -0.000286777 -0.000135784 -0.000198187 -4473.18 -2118.1 478.031
37 2.14646e-06 3.27577e-05 0.000609576 33.4931 511.06 -1472.37
38 -4.07209e-05 -0.000109612 0.000196379 -635.093 -1710.14 -473.284
39 -8.4082e-05 0.000381746 -0.000390948 -1311.37 5954.19 943.98
40 0.000130157 1.7268e-05 -0.000154797 2030.23 269.804 375.284
41 -2.97149e-07 1.70834e-07 8.78737e-06 23.0377 -9.73345 33.0636
42 -0.000123295 0.000227292 -2.70101e-05 -1923.08 3545.58 65.2518
43 -0.000255859 0.000107939 0.000158218 -3991.64 1684.12 -379.563
44 -7.98149e-05 -3.77025e-05 -0.000484581 -1245.46 -588.194 1171.51
45 1.67109e-06 -6.81037e-07 -6.49167e-06 -1.06161 0.740843 -39.8148
46 0.000110485 0.000180914 -0.000244674 1723.44 2821.98 590.504
47 2.74228e-05 -2.57636e-05 -0.000641301 427.694 -401.506 1548.56
48 -0.000147312 -6.24675e-05 -0.000129859 -2297.9 -974.749 313.928
49 0.000142804 -1.56534e-05 -0.000182975 2228.02 -245.07 440.138
50 -0.000139558 6.33133e-05 7.04415e-05 -2177.59 987.746 -170.391
ITEM: TIMESTEP
30
ITEM: NUMBER OF ATOMS
50
ITEM: BOX BOUNDS mm mm mm
-1.0000000000000000e-03 1.0000000000000000e-03
-1.0000000000000000e-03 1.0000000000000000e-03
-1.0000000000000000e-03 1.0000000000000000e-03
ITEM: ATOMS id x y z vx vy vz
1 0.000707753 0.00037873 -0.000122701 -991.285 -530.489 570.873
2 -0.000488266 -0.000571615 0.000120501 683.928 800.581 -560.016
3 -0.00015033 0.000153057 -6.35677e-05 210.188 -214.012 294.627
4 0.000294934 0.000203219 -0.000322706 -412.878 -284.516 1501.95
5 4.40723e-05 2.81793e-05 9.36329e-05 -60.817 -36.86 -436.699
6 8.25761e-05 2.60981e-06 -0.000364369 -114.993 -3.49792 1698.48
7 -0.000149223 -0.000531588 0.000459195 209.045 744.632 -2136.83
8 -7.55507e-05 -8.01841e-05 0.000266984 105.781 112.253 -1241.67
9 -3.72628e-05 6.33559e-05 -4.94704e-05 52.2334 -88.5687 229.985
10 -8.6971e-05 -8.19664e-05 -0.000394214 121.366 114.56 1834.45
11 -4.05543e-05 6.7075e-05 8.89682e-05 55.2598 -92.8954 -419.529
12 -0.000601797 0.000425845 -2.14504e-05 842.771 -596.386 99.5733
13 -0.000663639 -0.00013264 8.25435e-05 929.361 185.678 -384.58
14 0.000110091 -0.000227951 -0.000399951 -154.215 317.657 1867.48
15 -4.71918e-06 6.82143e-05 5.02226e-05 6.71192 -91.9221 -228.242
16 -1.82874e-07 2.06941e-07 4.83993e-05 0.431955 -3.84062 -233.627
17 0.000231222 0.000344132 -9.06827e-05 -323.569 -481.665 422.868
18 -0.00015564 -0.000103027 0.00049961 217.969 144.313 -2324.48
19 -0.000606284 0.000539688 -0.000269356 849.229 -755.983 1253.53
20 -0.00023363 -3.46534e-05 -0.00019598 326.941 48.5027 910.96
21 -3.21911e-05 -5.35094e-05 -0.000221263 45.2275 74.8747 1028.66
22 0.000117585 -8.682e-05 0.000370529 -164.562 121.551 -1724.11
23 -0.000109809 -0.000402264 -0.000254666 153.718 563.143 1184.54
24 5.35692e-05 -7.97733e-06 0.000102414 -73.2205 7.63895 -461.473
25 0.000446159 0.000100692 0.000271308 -624.834 -141.013 -1262.04
26 -9.486e-05 0.000275997 -0.000128956 132.881 -386.097 598.946
27 0.000132476 -0.000144145 -0.00040497 -184.753 202.655 1874.34
28 -0.000229056 -3.83627e-05 0.00017175 320.555 53.6641 -797.571
29 -0.000388663 0.000157212 9.33401e-05 544.602 -220.351 -435.131
30 5.7468e-05 -9.12873e-05 -0.00049692 -80.4109 127.565 2310.12
31 7.67338e-07 -0.00034144 -0.000185514 -0.905164 477.917 863.566
32 0.000204953 0.000216579 5.61699e-05 -286.438 -302.89 -259.383
33 -3.18762e-05 5.70492e-05 -0.000373492 44.2872 -79.1465 1736.09
34 0.000172037 -0.000382494 0.000199171 -240.839 535.594 -926.096
35 -0.000342907 0.000102117 -0.000127973 479.815 -142.926 595.311
36 -0.000497258 -0.000235455 -0.000141019 696.272 329.593 655.255
37 3.72339e-06 5.68117e-05 0.000433538 -5.19354 -79.4335 -2017.33
38 -7.06023e-05 -0.000190106 0.000139775 98.8919 265.758 -648.825
39 -0.00014578 0.000661898 -0.000278076 204.245 -927.079 1293.56
40 0.00022569 2.99949e-05 -0.000109946 -315.955 -41.4563 513.778
41 1.7306e-06 -7.25569e-07 1.17955e-05 13.5024 -6.43491 25.8954
42 -0.00021378 0.000394141 -1.92065e-05 299.384 -551.632 89.4404
43 -0.000443726 0.000187211 0.000112798 620.555 -261.679 -520.895
44 -0.00013845 -6.53838e-05 -0.000344527 193.304 91.4814 1604.84
45 7.09292e-07 -2.77578e-07 -1.03426e-05 -16.3711 6.56609 -36.0277
46 0.000191584 0.000313704 -0.000174068 -268.204 -439.173 809.167
47 4.75449e-05 -4.46317e-05 -0.000456142 -66.6196 62.9344 2121.95
48 -0.000255445 -0.000108354 -9.2329e-05 357.531 151.362 430.054
49 0.000247674 -2.72376e-05 -0.000130325 -346.225 37.2444 603.619
50 -0.000242054 0.000109799 5.00778e-05 338.391 -153.599 -233.283
ITEM: TIMESTEP
40
ITEM: NUMBER OF ATOMS
50
ITEM: BOX BOUNDS mm mm mm
-1.0000000000000000e-03 1.0000000000000000e-03
-1.0000000000000000e-03 1.0000000000000000e-03
-1.0000000000000000e-03 1.0000000000000000e-03
ITEM: ATOMS id x y z vx vy vz
1 0.000246599 0.000131956 -6.02822e-05 -7283.71 -3897.66 666.488
2 -0.00017012 -0.000199169 5.92634e-05 5024.94 5882.62 -653.908
3 -5.24185e-05 5.33722e-05 -3.13472e-05 1546.64 -1574.62 344.035
4 0.000102789 7.08202e-05 -0.000158499 -3034.92 -2091.22 1753.13
5 1.54652e-05 1.00968e-05 4.59325e-05 -452.197 -286.964 -508.649
6 2.88416e-05 9.31826e-07 -0.000178695 -849.067 -26.5306 1982.22
7 -5.19892e-05 -0.000185214 0.000225563 1535.73 5470.75 -2494.53
8 -2.63293e-05 -2.79484e-05 0.000131234 777.44 825.03 -1449.2
9 -1.29929e-05 2.21126e-05 -2.43585e-05 383.174 -651.283 267.521
10 -3.03399e-05 -2.8591e-05 -0.000193668 894.781 843.107 2140.85
11 -1.43057e-05 2.34866e-05 4.32196e-05 415.273 -688.956 -486.807
12 -0.000209693 0.000148382 -1.05594e-05 6193.16 -4382.42 116.333
13 -0.000231244 -4.62246e-05 4.05021e-05 6829.55 1364.95 -448.802
14 3.83616e-05 -7.95817e-05 -0.000195842 -1132.87 2344.41 2178.64
15 -1.62084e-06 2.41281e-05 2.51957e-05 48.979 -698.483 -268.035
16 -7.24851e-08 -2.56773e-07 2.30747e-05 1.13059 -4.83797 -266.647
17 8.05979e-05 0.000119945 -4.44484e-05 -2379.16 -3541.05 493.719
18 -5.42335e-05 -3.58984e-05 0.000245464 1601.65 1060.24 -2713.47
19 -0.00021124 0.000188034 -0.000132303 6239.51 -5554.14 1463.32
20 -8.14377e-05 -1.20783e-05 -9.63784e-05 2403.91 356.562 1063.39
21 -1.12027e-05 -1.86564e-05 -0.000108784 331.42 550.486 1201.03
22 4.09886e-05 -3.02586e-05 0.00018203 -1209.83 893.362 -2012.48
23 -3.8272e-05 -0.000140193 -0.000125151 1129.91 4139.37 1382.84
24 1.88672e-05 -3.14775e-06 5.18519e-05 -548.979 78.1962 -540.159
25 0.000155464 3.50858e-05 0.00013332 -4591.39 -1036.24 -1473.31
26 -3.305e-05 9.6219e-05 -6.34643e-05 976.249 -2839.7 699.226
27 4.62423e-05 -5.01634e-05 -0.000199928 -1362.44 1483.78 2190.23
28 -7.98435e-05 -1.33773e-05 8.45403e-05 2356.81 394.628 -931.085
29 -0.000135393 5.47578e-05 4.57726e-05 4000.2 -1618.17 -507.849
30 2.00354e-05 -3.18515e-05 -0.000244356 -591.238 938.797 2696.16
31 2.86278e-07 -0.000119002 -9.10961e-05 -7.67027 3513.43 1008.15
32 7.14728e-05 7.55078e-05 2.77961e-05 -2108.62 -2228.4 -303.004
33 -1.11413e-05 1.99572e-05 -0.000183664 327.717 -586.236 2026.88
34 5.99563e-05 -0.000133288 9.79104e-05 -1770.31 3936.12 -1081.21
35 -0.00011953 3.55929e-05 -6.28889e-05 3528.35 -1050.75 694.816
36 -0.000173279 -8.20587e-05 -6.9367e-05 5117.18 2422.93 765.107
37 1.30069e-06 1.98113e-05 0.000212982 -38.2687 -584.453 -2354.74
38 -2.46013e-05 -6.62979e-05 6.8824e-05 726.537 1955.68 -757.593
39 -5.07877e-05 0.000230623 -0.000136639 1500.31 -6811.75 1510.19
40 7.86562e-05 1.05167e-05 -5.37895e-05 -2322.37 -307.841 599.526
41 1.92551e-06 -9.01551e-07 1.37226e-05 -9.55845 2.784 9.96627
42 -7.4493e-05 0.000137374 -9.42559e-06 2199.97 -4055.68 104.478
43 -0.00015471 6.52871e-05 5.58146e-05 4565.25 -1925.96 -608.528
44 -4.83146e-05 -2.27903e-05 -0.000169076 1423.86 672.809 1873.24
45 -1.00569e-06 3.83503e-07 -1.35279e-05 -14.2773 5.02319 -27.088
46 6.67644e-05 0.000109326 -8.56e-05 -1971.54 -3228.13 944.466
47 1.65624e-05 -1.5497e-05 -0.000224135 -489.341 460.049 2477.15
48 -8.90356e-05 -3.77989e-05 -4.53101e-05 2628.44 1114.56 502.037
49 8.63744e-05 -9.59027e-06 -6.43063e-05 -2547.92 279.13 704.955
50 -8.44007e-05 3.82773e-05 2.45824e-05 2490.44 -1129.75 -272.056
ITEM: TIMESTEP
50
ITEM: NUMBER OF ATOMS
50
ITEM: BOX BOUNDS mm mm mm
-1.0000000000000000e-03 1.0000000000000000e-03
-1.0000000000000000e-03 1.0000000000000000e-03
-1.0000000000000000e-03 1.0000000000000000e-03
ITEM: ATOMS id x y z vx vy vz
1 -0.000479426 -0.000256572 8.28388e-06 -5745.91 -3074.89 692.988
2 0.000330794 0.000387188 -7.94335e-06 3964.42 4640.6 -679.003
3 0.000101646 -0.000103525 3.75295e-06 1219.9 -1242.86 353.559
4 -0.000199764 -0.000137661 2.19422e-05 -2395.49 -1650.43 1823.8
5 -2.91535e-05 -1.88572e-05 -6.05608e-06 -355.983 -235.602 -523.958
6 -5.56319e-05 -1.82055e-06 2.56458e-05 -671.176 -23.1472 2066.47
7 0.000101118 0.000360196 -3.11517e-05 1211.8 4316.96 -2594.82
8 5.11478e-05 5.43357e-05 -1.77328e-05 612.526 652.099 -1505.57
9 2.57321e-05 -4.19917e-05 1.62355e-06 307.386 -493.397 256.673
10 5.85774e-05 5.56132e-05 2.6326e-05 704.535 668.609 2222.66
11 2.7019e-05 -4.54434e-05 -6.75332e-06 338.655 -566.056 -506.26
12 0.000407602 -0.000288487 1.43579e-06 4885.51 -3457.66 121.394
13 0.00044945 8.97624e-05 -5.68141e-06 5387.29 1076.13 -466.751
14 -7.44719e-05 0.000153901 2.86322e-05 -893.093 1849.97 2269.7
15 2.99029e-06 -4.56088e-05 -1.74502e-06 32.8433 -561.695 -269.129
16 -3.53808e-06 -3.66047e-07 -4.21528e-06 -46.2139 6.31968 -281.985
17 -0.000156561 -0.000233014 6.48392e-06 -1878.17 -2794.8 515.506
18 0.000105478 6.98482e-05 -3.36709e-05 1264.89 837.828 -2820.66
19 0.000410754 -0.000365699 1.82642e-05 4922.7 -4382.78 1521.78
20 0.000158217 2.34737e-05 1.29769e-05 1901.61 278.347 1108.7
21 2.18924e-05 3.62935e-05 1.4602e-05 262.25 436.41 1246.09
22 -7.96818e-05 5.88412e-05 -2.50249e-05 -956.434 705.939 -2092.3
23 7.43975e-05 0.00027249 1.70368e-05 892.179 3267.23 1436.69
24 -3.59732e-05 4.84056e-06 -2.29013e-06 -439.402 69.6846 -539.975
25 -0.000302283 -6.821e-05 -1.82258e-05 -3623.46 -817.564 -1531.46
26 6.42948e-05 -0.000186776 8.31539e-06 770.539 -2240.84 724.779
27 -8.95032e-05 9.79116e-05 2.47863e-05 -1076.1 1172.56 2268.88
28 0.000155121 2.60564e-05 -1.09795e-05 1857.39 315.479 -967.917
29 0.000263199 -0.000106419 -6.63154e-06 3153.68 -1274.97 -530.256
30 -3.89419e-05 6.18535e-05 3.26702e-05 -467.539 744.256 2797.62
31 -4.44938e-07 0.000231193 1.266e-05 -6.04837 2772.44 1048.78
32 -0.000138368 -0.00014638 -3.2709e-06 -1660.61 -1756.09 -313.478
33 2.13334e-05 -3.83261e-05 2.46846e-05 255.567 -460.416 2106.71
34 -0.000116531 0.000259144 -1.32256e-05 -1397.3 3106.7 -1122.78
35 0.000232107 -6.9176e-05 8.50554e-06 2783.84 -829.442 720.992
36 0.000336794 0.000159398 9.28932e-06 4037.32 1911.17 794.747
37 -2.53594e-06 -3.84677e-05 -2.92534e-05 -32.0546 -461.884 -2447.92
38 4.78971e-05 0.00012872 -8.86095e-06 574.207 1545.59 -784.006
39 9.88306e-05 -0.000448458 1.87386e-05 1184.28 -5374.87 1570.41
40 -0.000152813 -2.03574e-05 8.19764e-06 -1832.71 -246.567 627.803
41 4.32299e-06 -9.07951e-07 1.20079e-05 33.1475 4.58992 -22.7842
42 0.000144897 -0.000266937 1.43002e-06 1736.9 -3201.02 110.17
43 0.000300418 -0.000126676 -6.19267e-06 3604.61 -1520.47 -624.187
44 9.36441e-05 4.42379e-05 2.39667e-05 1125.87 530.475 1952.1
45 -1.92787e-06 -4.06652e-07 -1.39056e-05 -0.946929 -10.9255 6.16671
46 -0.000129725 -0.000212459 1.13922e-05 -1554.72 -2547.18 979.289
47 -3.2231e-05 3.03163e-05 3.06111e-05 -386.582 362.125 2573.72
48 0.000172975 7.32618e-05 6.37078e-06 2074.95 880.325 522.446
49 -0.00016764 1.82371e-05 7.80213e-06 -2012.57 222.306 727.01
50 0.000163437 -7.42421e-05 -3.51724e-06 1961.23 -890.771 -284.276
ITEM: TIMESTEP
60
ITEM: NUMBER OF ATOMS
50
ITEM: BOX BOUNDS mm mm mm
-1.0000000000000000e-03 1.0000000000000000e-03
-1.0000000000000000e-03 1.0000000000000000e-03
-1.0000000000000000e-03 1.0000000000000000e-03
ITEM: ATOMS id x y z vx vy vz
1 -0.000690106 -0.000369311 7.59783e-05 1965.42 1051.89 648.956
2 0.000476148 0.00055735 -7.42809e-05 -1356.15 -1587.18 -636.045
3 0.000146464 -0.00014922 3.83181e-05 -415.726 423.036 331.65
4 -0.000287677 -0.000198206 0.000200104 818.068 564.009 1707.97
5 -4.26109e-05 -2.80344e-05 -5.73068e-05 115.031 71.3523 -491.963
6 -8.04998e-05 -2.75615e-06 0.000227505 225.341 6.47802 1934.79
7 0.000145547 0.000518491 -0.000284624 -414.569 -1476.53 -2429.89
8 7.35996e-05 7.83123e-05 -0.00016486 -209.732 -222.018 -1410.83
9 3.70363e-05 -5.96567e-05 2.69618e-05 -104.971 176.198 244.336
10 8.45275e-05 8.02599e-05 0.000243509 -238.974 -226.551 2082.5
11 4.02201e-05 -6.7269e-05 -5.63942e-05 -102.454 175.218 -476.29
12 0.000586755 -0.00041527 1.32923e-05 -1670.75 1182.61 113.65
13 0.000647016 0.000129235 -5.12718e-05 -1842.16 -367.822 -437.014
14 -0.000107255 0.000222012 0.000250283 304.884 -627.904 2124.17
15 3.96751e-06 -6.69946e-05 -2.81187e-05 -14.717 178.442 -253.676
16 -7.2821e-06 7.57697e-07 -3.10959e-05 -11.5729 12.1181 -260.097
17 -0.000225537 -0.00033562 5.68129e-05 640.591 953.781 482.2
18 0.000151909 0.000100618 -0.000309248 -431.845 -285.82 -2642.09
19 0.000591242 -0.000526399 0.000166918 -1683.98 1499.18 1425.07
20 0.000228215 3.35375e-05 0.000121331 -645.728 -97.6939 1039.03
21 3.15179e-05 5.24032e-05 0.00013637 -89.6616 -147.629 1167.63
22 -0.000114845 8.47792e-05 -0.000229446 325.633 -240.629 -1959.9
23 0.000107141 0.000392367 0.000157391 -304.647 -1116.18 1345.63
24 -5.25896e-05 8.00517e-06 -5.52887e-05 141.768 -13.1164 -510.616
25 -0.000435181 -9.81904e-05 -0.000167835 1238.76 279.589 -1434.32
26 9.25463e-05 -0.000269068 7.91369e-05 -263.592 764.26 679.162
27 -0.000129147 0.000140885 0.000246554 364.881 -401.57 2127.3
28 0.000223172 3.77676e-05 -0.000105601 -636.378 -105.296 -907.576
29 0.000378799 -0.000153149 -5.84231e-05 -1079.36 436.479 -496.408
30 -5.6142e-05 8.93364e-05 0.000306046 159.024 -251.424 2621.53
31 -7.03038e-07 0.000332938 0.000115105 1.42493 -946.775 982.04
32 -0.000199367 -0.000210854 -3.39289e-05 566.041 599.17 -294.249
33 3.07171e-05 -5.52937e-05 0.000230603 -87.3276 156.146 1974.65
34 -0.000167804 0.000373106 -0.000122919 477.278 -1061.8 -1051.73
35 0.000334288 -9.96035e-05 7.89552e-05 -950.322 283.408 675.539
36 0.000484871 0.000229514 8.69365e-05 -1380.21 -653.012 744.497
37 -3.79754e-06 -5.54752e-05 -0.00026848 9.51659 156.976 -2293.75
38 6.89633e-05 0.000185558 -8.54839e-05 -196.217 -525.857 -734.901
39 0.000142243 -0.000645543 0.000172146 -405.265 1838.36 1470.68
40 -0.00022009 -2.95392e-05 6.94891e-05 625.591 81.891 587.202
41 4.782e-06 -1.5341e-08 9.39541e-06 -25.2734 11.4275 -29.4301
42 0.000208601 -0.0003844 1.21851e-05 -593.805 1093.29 103.032
43 0.000432803 -0.000182545 -6.72361e-05 -1229.16 517.992 -585.923
44 0.000135135 6.37075e-05 0.000214652 -381.566 -181.148 1827.83
45 9.15629e-07 -1.38861e-06 -1.34703e-05 42.5072 -5.32457 12.5721
46 -0.00018671 -0.000305896 0.000107086 532.045 870.523 917.698
47 -4.64274e-05 4.3538e-05 0.000282089 131.955 -125.017 2411.17
48 0.000249171 0.000105675 5.74028e-05 -707.843 -298.86 489.15
49 -0.000241625 2.65819e-05 7.88676e-05 685.119 -72.6317 681.769
50 0.000235475 -0.000106961 -3.12894e-05 -668.637 303.725 -266.265
ITEM: TIMESTEP
70
ITEM: NUMBER OF ATOMS
50
ITEM: BOX BOUNDS mm mm mm
-1.0000000000000000e-03 1.0000000000000000e-03
-1.0000000000000000e-03 1.0000000000000000e-03
-1.0000000000000000e-03 1.0000000000000000e-03
ITEM: ATOMS id x y z vx vy vz
1 -0.000159039 -8.51018e-05 0.000135867 7564.1 4048 538.266
2 0.000109724 0.000128458 -0.000132989 -5219.02 -6108.89 -527.797
3 3.38791e-05 -3.45614e-05 6.89576e-05 -1604.43 1634.36 275.798
4 -6.64069e-05 -4.57217e-05 0.000357726 3152.4 2172.17 1416.65
5 -1.0369e-05 -7.23975e-06 -0.000102787 463.697 300.507 -409.809
6 -1.88899e-05 -7.57943e-07 0.000406007 880.015 29.3797 1603.68
7 3.35376e-05 0.000119501 -0.000508863 -1595.36 -5683.04 -2015.36
8 1.69541e-05 1.8136e-05 -0.000295094 -806.738 -857.832 -1170.91
9 8.59194e-06 -1.32594e-05 4.9638e-05 -405.604 656.505 205.2
10 1.96256e-05 1.8675e-05 0.000435736 -925.425 -878.499 1728.22
11 1.02999e-05 -1.68692e-05 -0.000100375 -434.195 728.964 -395.666
12 0.00013525 -9.57097e-05 2.378e-05 -6431.06 4551.59 94.2603
13 0.000149157 2.98043e-05 -9.15987e-05 -7091.44 -1416.35 -362.433
14 -2.47689e-05 5.15531e-05 0.00044624 1175.31 -2430.37 1760.48
15 6.25753e-07 -1.65174e-05 -5.16049e-05 -45.1007 726.955 -211.821
16 -4.33872e-06 1.39585e-06 -5.51669e-05 64.3705 -0.25159 -216.446
17 -5.21303e-05 -7.75284e-05 0.000101285 2471.01 3677.41 399.429
18 3.50759e-05 2.32504e-05 -0.00055309 -1664.64 -1102.5 -2191.75
19 0.000136245 -0.000121312 0.000298429 -6480.57 5769.78 1181.99
20 5.29504e-05 7.55267e-06 0.000217246 -2499.21 -368.57 862.393
21 7.26933e-06 1.2215e-05 0.000244147 -345.517 -573.547 968.955
22 -2.65929e-05 1.96092e-05 -0.000410329 1257.99 -928.807 -1625.83
23 2.47362e-05 9.05403e-05 0.000281586 -1174.04 -4299.81 1116.41
24 -1.28464e-05 2.73702e-06 -0.00010269 570.953 -79.8218 -429.177
25 -0.000100347 -2.26338e-05 -0.000300212 4769.56 1076.2 -1189.9
26 2.13261e-05 -6.2192e-05 0.000141842 -1014.38 2947.9 563.955
27 -3.00228e-05 3.24398e-05 0.000443005 1413.62 -1544.66 1767.07
28 5.13806e-05 8.89359e-06 -0.000189406 -2446.26 -412.839 -753.864
29 8.72412e-05 -3.52613e-05 -0.000104218 -4152.53 1679 -411.242
30 -1.30149e-05 2.08546e-05 0.000548063 614.871 -977.486 2176.29
31 -2.14496e-07 7.68555e-05 0.000205725 7.30931 -3648.34 814.36
32 -4.6102e-05 -4.87127e-05 -6.11196e-05 2183.98 2310.18 -244.788
33 7.09835e-06 -1.28722e-05 0.000412877 -336.367 604.844 1638.66
34 -3.87277e-05 8.60574e-05 -0.000219994 1838.87 -4089.02 -872.693
35 7.71946e-05 -2.29803e-05 0.000141313 -3662.92 1091.5 560.651
36 0.000111805 5.29507e-05 0.000155657 -5314.08 -2515.22 617.815
37 -9.82607e-07 -1.28733e-05 -0.000480178 41.0015 607.461 -1902.85
38 1.59105e-05 4.29959e-05 -0.000153342 -755.788 -2032.2 -610.393
39 3.27675e-05 -0.000148783 0.000307872 -1559.2 7075.57 1219.93
40 -5.08279e-05 -7.01415e-06 0.000123634 2411.7 322.136 485.921
41 1.57904e-07 9.67913e-07 6.22974e-06 -58.0665 6.32715 -33.195
42 4.81003e-05 -8.8722e-05 2.16846e-05 -2286.22 4212.29 85.2756
43 0.000100059 -4.22412e-05 -0.000121395 -4741.37 1999.48 -488.047
44 3.14386e-05 1.47069e-05 0.000383299 -1479.1 -698.082 1515.22
45 3.9163e-06 -1.06351e-06 -1.15846e-05 11.276 11.1941 24.1545
46 -4.30056e-05 -7.05571e-05 0.000191809 2046.54 3352.38 761.855
47 -1.07199e-05 9.93052e-06 0.000504626 508.783 -478.065 2000.36
48 5.75812e-05 2.45392e-05 0.000102535 -2730.06 -1156.98 405.559
49 -5.59571e-05 6.40766e-06 0.000141846 2646.4 -289.104 566.998
50 5.44422e-05 -2.47287e-05 -5.58639e-05 -2579.71 1171.84 -220.853
ITEM: TIMESTEP
80
ITEM: NUMBER OF ATOMS
50
ITEM: BOX BOUNDS mm mm mm
-1.0000000000000000e-03 1.0000000000000000e-03
-1.0000000000000000e-03 1.0000000000000000e-03
-1.0000000000000000e-03 1.0000000000000000e-03
ITEM: ATOMS id x y z vx vy vz
1 0.000542685 0.000290458 0.000181488 5030.41 2692.23 368.465
2 -0.000374624 -0.000438464 -0.000178149 -3472.39 -4064.54 -366.628
3 -0.000115104 0.000117225 9.25697e-05 -1069.13 1089.51 192.015
4 0.000226224 0.000155897 0.000478585 2098.8 1445.83 979.383
5 2.89773e-05 2.29929e-05 -0.000135719 270.6 236.816 -254.669
6 6.29705e-05 2.05065e-06 0.00054252 589.542 20.9724 1104.47
7 -0.000114518 -0.000407926 -0.000680847 -1061.41 -3781.34 -1393.87
8 -5.77824e-05 -6.1482e-05 -0.000394842 -535.521 -571.29 -808.004
9 -2.90857e-05 4.73809e-05 6.72485e-05 -270.39 431.564 144.154
10 -6.63091e-05 -6.29771e-05 0.000583055 -617.314 -586.69 1193.69
11 -3.02266e-05 5.11082e-05 -0.000132596 -297.771 496.115 -254.735
12 -0.000460936 0.000326688 3.24798e-05 -4273.22 3028.38 73.2153
13 -0.000508915 -0.00010161 -0.000122255 -4718.2 -942.282 -247.323
14 8.44391e-05 -0.000173969 0.000597664 783.387 -1620.04 1231.6
15 -3.27731e-06 5.15266e-05 -6.86702e-05 -25.7452 496.381 -134.382
16 2.57986e-06 8.71675e-07 -7.38264e-05 65.5954 -12.9977 -152.244
17 0.000177023 0.000263615 0.000135186 1643.5 2446.64 273.799
18 -0.000119454 -7.91062e-05 -0.000740153 -1108.32 -734.213 -1516.34
19 -0.000465153 0.000414157 0.000399227 -4311.49 3838.92 816.673
20 -0.000179199 -2.65589e-05 0.000290952 -1666.81 -243.443 598.089
21 -2.47986e-05 -4.10978e-05 0.00032691 -229.844 -383.122 671.339
22 9.02344e-05 -6.66337e-05 -0.000549074 838.433 -618.78 -1124.58
23 -8.42552e-05 -0.000308571 0.000376856 -781.726 -2862.24 772.284
24 4.28572e-05 -6.51194e-06 -0.000142486 417.588 -86.8857 -342.753
25 0.000342204 7.72002e-05 -0.000401995 3172.94 715.697 -826.03
26 -7.36291e-05 0.000209904 0.000190633 -682.373 1949.01 398.464
27 0.000101192 -0.000111167 0.000593058 942.671 -1029.17 1214.26
28 -0.000175621 -2.95364e-05 -0.000253843 -1627.23 -276.752 -523.183
29 -0.00029683 0.000120416 -0.000140325 -2750.49 1115.56 -296.532
30 4.40962e-05 -7.00264e-05 0.0007339 409.969 -653.369 1507.45
31 4.91202e-07 -0.000261791 0.000275195 5.47467 -2428.84 562.88
32 0.000156591 0.000165654 -8.2571e-05 1454.41 1537.73 -176.489
33 -2.41126e-05 4.3345e-05 0.000552969 -224.171 404.387 1136.84
34 0.000131966 -0.000293476 -0.00029452 1224.19 -2721.54 -604.417
35 -0.000260846 7.92886e-05 0.000188665 -2420.83 735.31 381.894
36 -0.000381383 -0.000180491 0.000208573 -3536.31 -1674.07 429.823
37 2.88708e-06 4.35574e-05 -0.000642558 28.4462 405.209 -1316.17
38 -5.42454e-05 -0.000145756 -0.000205557 -503.06 -1354.99 -424.112
39 -0.000111955 0.000507873 0.0004121 -1037.5 4707.87 845.322
40 0.00017306 2.30274e-05 0.000164855 1605.88 217.055 332.486
41 -4.75505e-06 9.9423e-07 2.846e-06 -30.4949 -6.15721 -33.0181
42 -0.000164759 0.000302305 2.83431e-05 -1527.59 2804.55 51.3436