ITEM: TIMESTEP
0
ITEM: NUMBER OF ATOMS
3
ITEM: BOX BOUNDS mm mm mm
-1.0000000000000000e-03 1.0000000000000000e-03
-1.0000000000000000e-03 1.0000000000000000e-03
-1.0000000000000000e-03 1.0000000000000000e-03
ITEM: ATOMS id x y z vx vy vz
1 -0.000493778 0.000777038 0.000306491 0 0 0
2 0.000534613 -0.000276537 4.86245e-05 0 0 0
3 0.000499256 0.00010435 -0.000271418 0 0 0
ITEM: TIMESTEP
10
ITEM: NUMBER OF ATOMS
3
ITEM: BOX BOUNDS mm mm mm
-1.0000000000000000e-03 1.0000000000000000e-03
-1.0000000000000000e-03 1.0000000000000000e-03
-1.0000000000000000e-03 1.0000000000000000e-03
ITEM: ATOMS id x y z vx vy vz
1 0.000100047 -0.00015792 -5.85178e-05 -2012.76 3169.04 -504.904
2 -0.000108711 5.5963e-05 -1.0609e-05 2180.54 -1126.85 -81.9983
3 -0.000101531 -2.13831e-05 4.87606e-05 2036.38 426.04 442.958
ITEM: TIMESTEP
20
ITEM: NUMBER OF ATOMS
3
ITEM: BOX BOUNDS mm mm mm
-1.0000000000000000e-03 1.0000000000000000e-03
-1.0000000000000000e-03 1.0000000000000000e-03
-1.0000000000000000e-03 1.0000000000000000e-03
ITEM: ATOMS id x y z vx vy vz
1 0.000411865 -0.000648874 -0.000247059 779.945 -1227.98 220.222
2 -0.000446522 0.000230506 -4.13396e-05 -844.951 436.799 35.6926
3 -0.000417014 -8.73585e-05 0.00021429 -789.066 -165.213 -193.12
ITEM: TIMESTEP
30
ITEM: NUMBER OF ATOMS
3
ITEM: BOX BOUNDS mm mm mm
-1.0000000000000000e-03 1.0000000000000000e-03
-1.0000000000000000e-03 1.0000000000000000e-03
-1.0000000000000000e-03 1.0000000000000000e-03
ITEM: ATOMS id x y z vx vy vz
1 -0.000250896 0.00039462 0.000156198 1536.5 -2419.21 347.73
2 0.000271483 -0.000140592 2.4133e-05 -1664.59 860.117 56.5651
3 0.000253517 5.29707e-05 -0.000139471 -1554.56 -325.147 -305.169
ITEM: TIMESTEP
40
ITEM: NUMBER OF ATOMS
3
ITEM: BOX BOUNDS mm mm mm
-1.0000000000000000e-03 1.0000000000000000e-03
-1.0000000000000000e-03 1.0000000000000000e-03
-1.0000000000000000e-03 1.0000000000000000e-03
ITEM: ATOMS id x y z vx vy vz
1 -0.00027948 0.000439644 0.000145863 -1306.03 2056.28 -345.455
2 0.000302456 -0.000156494 2.26635e-05 1414.89 -731.445 -55.9007
3 0.000282459 5.89336e-05 -0.000130635 1321.32 276.681 302.846
ITEM: TIMESTEP
50
ITEM: NUMBER OF ATOMS
3
ITEM: BOX BOUNDS mm mm mm
-1.0000000000000000e-03 1.0000000000000000e-03
-1.0000000000000000e-03 1.0000000000000000e-03
-1.0000000000000000e-03 1.0000000000000000e-03
ITEM: ATOMS id x y z vx vy vz
1 0.000336751 -0.000530607 -0.000204182 -898.239 1414.35 -154.899
2 -0.000365148 0.000188499 -3.43252e-05 973.147 -502.45 -25.5836
3 -0.000341016 -7.15044e-05 0.000176613 908.889 189.761 136.359
ITEM: TIMESTEP
60
ITEM: NUMBER OF ATOMS
3
ITEM: BOX BOUNDS mm mm mm
-1.0000000000000000e-03 1.0000000000000000e-03
-1.0000000000000000e-03 1.0000000000000000e-03
-1.0000000000000000e-03 1.0000000000000000e-03
ITEM: ATOMS id x y z vx vy vz
1 0.000124679 -0.000196734 -4.22501e-05 1539.66 -2424.21 371.332
2 -0.000135407 6.96067e-05 -8.26003e-06 -1668.04 862.03 60.2542
3 -0.00012649 -2.64734e-05 3.48135e-05 -1557.79 -325.989 -325.703
ITEM: TIMESTEP
70
ITEM: NUMBER OF ATOMS
3
ITEM: BOX BOUNDS mm mm mm
-1.0000000000000000e-03 1.0000000000000000e-03
-1.0000000000000000e-03 1.0000000000000000e-03
-1.0000000000000000e-03 1.0000000000000000e-03
ITEM: ATOMS id x y z vx vy vz
1 -0.000356035 0.000560183 0.000194807 225.104 -354.551 -25.9214
2 0.000385397 -0.000199398 3.05413e-05 -243.911 125.37 -3.69032
3 0.00035992 7.519e-05 -0.000173493 -227.901 -47.0829 22.1545
ITEM: TIMESTEP
80
ITEM: NUMBER OF ATOMS
3
ITEM: BOX BOUNDS mm mm mm
-1.0000000000000000e-03 1.0000000000000000e-03
-1.0000000000000000e-03 1.0000000000000000e-03
-1.0000000000000000e-03 1.0000000000000000e-03
ITEM: ATOMS id x y z vx vy vz
1 2.33995e-05 -3.72135e-05 -5.10102e-05 -1492.81 2350.57 -315.277
2 -2.56661e-05 1.3207e-05 -9.12189e-06 1617.32 -835.444 -51.5436
3 -2.39523e-05 -5.29755e-06 4.18639e-05 1510.55 315.826 276.985
ITEM: TIMESTEP
90
ITEM: NUMBER OF ATOMS
3
ITEM: BOX BOUNDS mm mm mm
-1.0000000000000000e-03 1.0000000000000000e-03
-1.0000000000000000e-03 1.0000000000000000e-03
-1.0000000000000000e-03 1.0000000000000000e-03
ITEM: ATOMS id x y z vx vy vz
1 0.000315662 -0.000497461 -0.000152259 371.431 -584.709 160.373
2 -0.000342324 0.000176541 -2.62382e-05 -402.368 208.721 25.636
3 -0.000319754 -6.69396e-05 0.000131468 -375.676 -79.3387 -140.212
ITEM: TIMESTEP
100
ITEM: NUMBER OF ATOMS
3
ITEM: BOX BOUNDS mm mm mm
-1.0000000000000000e-03 1.0000000000000000e-03
-1.0000000000000000e-03 1.0000000000000000e-03
-1.0000000000000000e-03 1.0000000000000000e-03
ITEM: ATOMS id x y z vx vy vz
1 -0.000143712 0.000225866 0.000107952 1219.31 -1920.16 207.091
2 0.00015537 -8.07087e-05 1.62029e-05 -1321.09 681.84 34.3537
3 0.000145086 3.04203e-05 -9.69679e-05 -1234.13 -257.639 -182.466
ITEM: TIMESTEP
110
ITEM: NUMBER OF ATOMS
3
ITEM: BOX BOUNDS mm mm mm
-1.0000000000000000e-03 1.0000000000000000e-03
-1.0000000000000000e-03 1.0000000000000000e-03
-1.0000000000000000e-03 1.0000000000000000e-03
ITEM: ATOMS id x y z vx vy vz
1 -0.000233009 0.000366553 8.35481e-05 -810.4 1275.99 -230.977
2 0.000252139 -0.000130297 1.28556e-05 877.983 -454.407 -37.3314
3 0.000235546 4.89868e-05 -7.63479e-05 819.997 172.328 202.28
ITEM: TIMESTEP
120
ITEM: NUMBER OF ATOMS
3
ITEM: BOX BOUNDS mm mm mm
-1.0000000000000000e-03 1.0000000000000000e-03
-1.0000000000000000e-03 1.0000000000000000e-03
-1.0000000000000000e-03 1.0000000000000000e-03
ITEM: ATOMS id x y z vx vy vz
1 0.000220946 -0.000348288 -0.00013499 -800.2 1260.24 -82.1171
2 -0.000239698 0.000123768 -2.28457e-05 867.023 -446.725 -13.863
3 -0.000223877 -4.71203e-05 0.000115754 810.043 168.398 72.9667
ITEM: TIMESTEP
130
ITEM: NUMBER OF ATOMS
3
ITEM: BOX BOUNDS mm mm mm
-1.0000000000000000e-03 1.0000000000000000e-03
-1.0000000000000000e-03 1.0000000000000000e-03
-1.0000000000000000e-03 1.0000000000000000e-03
ITEM: ATOMS id x y z vx vy vz
1 0.000127063 -0.000200513 -1.83267e-05 1049.73 -1652.65 238.83
2 -0.000137998 7.07483e-05 -4.47297e-06 -1137.22 588.314 38.4412
3 -0.00012893 -2.68002e-05 1.413e-05 -1061.88 -222.728 -209.166
ITEM: TIMESTEP
140
ITEM: NUMBER OF ATOMS
3
ITEM: BOX BOUNDS mm mm mm
-1.0000000000000000e-03 1.0000000000000000e-03
-1.0000000000000000e-03 1.0000000000000000e-03
-1.0000000000000000e-03 1.0000000000000000e-03
ITEM: ATOMS id x y z vx vy vz
1 -0.000251314 0.00039526 0.000123136 325.191 -512.277 -31.8504
2 0.000271937 -0.000140871 1.87933e-05 -352.383 180.406 -4.39965
3 0.00025391 5.30898e-05 -0.000110562 -329.325 -67.3571 26.7349
ITEM: TIMESTEP
150
ITEM: NUMBER OF ATOMS
3
ITEM: BOX BOUNDS mm mm mm
-1.0000000000000000e-03 1.0000000000000000e-03
-1.0000000000000000e-03 1.0000000000000000e-03
-1.0000000000000000e-03 1.0000000000000000e-03
ITEM: ATOMS id x y z vx vy vz
1 -1.92427e-05 2.99704e-05 -4.06006e-05 -1084.48 1707.33 -196.296
2 2.05425e-05 -1.03831e-05 -7.25971e-06 1174.84 -607.224 -32.2791
3 1.92449e-05 3.47473e-06 3.23634e-05 1096.96 229.466 172.853
ITEM: TIMESTEP
160
ITEM: NUMBER OF ATOMS
3
ITEM: BOX BOUNDS mm mm mm
-1.0000000000000000e-03 1.0000000000000000e-03
-1.0000000000000000e-03 1.0000000000000000e-03
-1.0000000000000000e-03 1.0000000000000000e-03
ITEM: ATOMS id x y z vx vy vz
1 0.000236651 -0.000372953 -9.38474e-05 122.286 -192.135 113.449
2 -0.000256686 0.000132402 -1.69217e-05 -132.366 70.6408 17.6906
3 -0.000239669 -5.02111e-05 8.05423e-05 -123.227 -27.7826 -98.4338
ITEM: TIMESTEP
170
ITEM: NUMBER OF ATOMS
3
ITEM: BOX BOUNDS mm mm mm
-1.0000000000000000e-03 1.0000000000000000e-03
-1.0000000000000000e-03 1.0000000000000000e-03
-1.0000000000000000e-03 1.0000000000000000e-03
ITEM: ATOMS id x y z vx vy vz
1 -7.42987e-05 0.000116453 7.33443e-05 943.438 -1485.15 123.162
2 8.01282e-05 -4.22669e-05 9.98369e-06 -1021.96 527.933 20.772
3 7.47015e-05 1.60483e-05 -6.59176e-05 -954.16 -199.18 -109.229
ITEM: TIMESTEP
180
ITEM: NUMBER OF ATOMS
3
ITEM: BOX BOUNDS mm mm mm
-1.0000000000000000e-03 1.0000000000000000e-03
-1.0000000000000000e-03 1.0000000000000000e-03
-1.0000000000000000e-03 1.0000000000000000e-03
ITEM: ATOMS id x y z vx vy vz
1 -0.000187812 0.000295261 4.73822e-05 -476.556 749.657 -153.21
2 0.000203121 -0.000105034 7.30386e-06 516.063 -269.531 -23.4703
3 0.000189641 3.9333e-05 -4.51334e-05 481.317 103.094 132.766
ITEM: TIMESTEP
190
ITEM: NUMBER OF ATOMS
3
ITEM: BOX BOUNDS mm mm mm
-1.0000000000000000e-03 1.0000000000000000e-03
-1.0000000000000000e-03 1.0000000000000000e-03
-1.0000000000000000e-03 1.0000000000000000e-03
ITEM: ATOMS id x y z vx vy vz
1 0.00014014 -0.000220866 -8.82886e-05 -677.449 1066.57 -41.6411
2 -0.000152083 7.90559e-05 -1.52915e-05 733.845 -377.64 -8.94162
3 -0.000141875 -3.03793e-05 7.46822e-05 685.316 141.637 39.2522
ITEM: TIMESTEP
200
ITEM: NUMBER OF ATOMS
3
ITEM: BOX BOUNDS mm mm mm
-1.0000000000000000e-03 1.0000000000000000e-03
-1.0000000000000000e-03 1.0000000000000000e-03
-1.0000000000000000e-03 1.0000000000000000e-03
ITEM: ATOMS id x y z vx vy vz
1 0.000116989 -0.000184626 -6.40643e-06 697.357 -1097.06 152.848
2 -0.000127063 6.49152e-05 -3.63972e-06 -755.165 393.641 23.9253
3 -0.000118705 -2.44417e-05 4.85234e-06 -704.427 -150.129 -133.215
ITEM: TIMESTEP
210
ITEM: NUMBER OF ATOMS
3
ITEM: BOX BOUNDS mm mm mm
-1.0000000000000000e-03 1.0000000000000000e-03
-1.0000000000000000e-03 1.0000000000000000e-03
-1.0000000000000000e-03 1.0000000000000000e-03
ITEM: ATOMS id x y z vx vy vz
1 -0.000173604 0.000272733 7.72526e-05 349.043 -549.914 -29.892
2 0.000187678 -9.79091e-05 1.1451e-05 -378.208 192.261 -1.81557
3 0.000175078 3.70456e-05 -7.04456e-05 -353.55 -70.9127 22.6426
ITEM: TIMESTEP
220
ITEM: NUMBER OF ATOMS
3
ITEM: BOX BOUNDS mm mm mm
-1.0000000000000000e-03 1.0000000000000000e-03
-1.0000000000000000e-03 1.0000000000000000e-03
-1.0000000000000000e-03 1.0000000000000000e-03
ITEM: ATOMS id x y z vx vy vz
1 -4.00349e-05 6.27821e-05 -3.1084e-05 -771.728 1214.35 -121.476
2 4.30847e-05 -2.14512e-05 -4.3824e-06 835.771 -433.583 -21.1332
3 4.03695e-05 7.3462e-06 2.26398e-05 779.895 164.275 108.271
ITEM: TIMESTEP
230
ITEM: NUMBER OF ATOMS
3
ITEM: BOX BOUNDS mm mm mm
-1.0000000000000000e-03 1.0000000000000000e-03
-1.0000000000000000e-03 1.0000000000000000e-03
-1.0000000000000000e-03 1.0000000000000000e-03
ITEM: ATOMS id x y z vx vy vz
1 0.000173661 -0.000273685 -5.75821e-05 -20.1564 32.5799 79.0435
2 -0.000188403 9.73857e-05 -1.19369e-05 22.0719 -6.21661 9.8812
3 -0.000175837 -3.70557e-05 4.96514e-05 21.4078 -0.245711 -65.9557
ITEM: TIMESTEP
240
ITEM: NUMBER OF ATOMS
3
ITEM: BOX BOUNDS mm mm mm
-1.0000000000000000e-03 1.0000000000000000e-03
-1.0000000000000000e-03 1.0000000000000000e-03
-1.0000000000000000e-03 1.0000000000000000e-03
ITEM: ATOMS id x y z vx vy vz
1 -3.09804e-05 4.81363e-05 4.91635e-05 712.434 -1121.42 72.4387
2 3.31711e-05 -1.87911e-05 4.96972e-06 -771.716 398.805 14.755
3 3.07379e-05 7.58431e-06 -4.35954e-05 -720.37 -150.445 -67.0369
ITEM: TIMESTEP
250
ITEM: NUMBER OF ATOMS
3
ITEM: BOX BOUNDS mm mm mm
-1.0000000000000000e-03 1.0000000000000000e-03
-1.0000000000000000e-03 1.0000000000000000e-03
-1.0000000000000000e-03 1.0000000000000000e-03
ITEM: ATOMS id x y z vx vy vz
1 -0.000146912 0.000230906 2.61701e-05 -257.291 403.939 -100.788
2 0.00015883 -8.20151e-05 5.50668e-06 278.402 -150.333 -13.3688
3 0.000148308 3.05859e-05 -2.82299e-05 258.9 59.95 85.1572
ITEM: TIMESTEP
260
ITEM: NUMBER OF ATOMS
3
ITEM: BOX BOUNDS mm mm mm
-1.0000000000000000e-03 1.0000000000000000e-03
-1.0000000000000000e-03 1.0000000000000000e-03
-1.0000000000000000e-03 1.0000000000000000e-03
ITEM: ATOMS id x y z vx vy vz
1 8.47475e-05 -0.000133585 -5.77785e-05 -550.637 867.508 -20.0317
2 -9.20704e-05 4.87292e-05 -1.01881e-05 596.687 -303.698 -8.91204
3 -8.57426e-05 -1.9303e-05 4.77782e-05 557.674 112.24 23.8888
ITEM: TIMESTEP
270
ITEM: NUMBER OF ATOMS
3
ITEM: BOX BOUNDS mm mm mm
-1.0000000000000000e-03 1.0000000000000000e-03
-1.0000000000000000e-03 1.0000000000000000e-03
-1.0000000000000000e-03 1.0000000000000000e-03
ITEM: ATOMS id x y z vx vy vz
1 0.000100817 -0.000159394 -1.27425e-06 447.659 -704.022 97.1612
2 -0.000109644 5.49415e-05 -4.94585e-06 -484.865 256.071 14.9294
3 -0.000102592 -2.02582e-05 2.59018e-06 -451.803 -99.6426 -84.3863
ITEM: TIMESTEP
280
ITEM: NUMBER OF ATOMS
3
ITEM: BOX BOUNDS mm mm mm
-1.0000000000000000e-03 1.0000000000000000e-03
-1.0000000000000000e-03 1.0000000000000000e-03
-1.0000000000000000e-03 1.0000000000000000e-03
ITEM: ATOMS id x y z vx vy vz
1 -0.000116678 0.00018319 4.81833e-05 328.931 -519.306 -24.1477
2 0.000126082 -6.63646e-05 7.42723e-06 -356.828 176.26 3.07251
3 0.000117563 2.54076e-05 -4.56931e-05 -334.407 -62.6627 13.418
ITEM: TIMESTEP
290
ITEM: NUMBER OF ATOMS
3
ITEM: BOX BOUNDS mm mm mm
-1.0000000000000000e-03 1.0000000000000000e-03
-1.0000000000000000e-03 1.0000000000000000e-03
-1.0000000000000000e-03 1.0000000000000000e-03
ITEM: ATOMS id x y z vx vy vz
1 -4.70232e-05 7.41381e-05 -2.26438e-05 -534.309 842.229 -76.3792
2 5.07784e-05 -2.35212e-05 -1.13198e-06 579.39 -295.763 -17.5785
3 4.7843e-05 7.2188e-06 1.32174e-05 541.474 110.36 72.9447
ITEM: TIMESTEP
300
ITEM: NUMBER OF ATOMS
3
ITEM: BOX BOUNDS mm mm mm
-1.0000000000000000e-03 1.0000000000000000e-03
-1.0000000000000000e-03 1.0000000000000000e-03
-1.0000000000000000e-03 1.0000000000000000e-03
ITEM: ATOMS id x y z vx vy vz
1 0.000124033 -0.000196004 -3.64831e-05 -92.3136 147.406 53.4495
2 -0.000134854 6.82381e-05 -1.08292e-05 100.604 -39.4059 3.42135
3 -0.000126134 -2.55411e-05 3.3787e-05 95.864 8.63217 -40.9599
ITEM: TIMESTEP
310
ITEM: NUMBER OF ATOMS
3
ITEM: BOX BOUNDS mm mm mm
-1.0000000000000000e-03 1.0000000000000000e-03
-1.0000000000000000e-03 1.0000000000000000e-03
-1.0000000000000000e-03 1.0000000000000000e-03
ITEM: ATOMS id x y z vx vy vz
1 -5.48727e-06 7.80828e-06 3.13637e-05 521.293 -823.622 44.5293
2 5.51652e-06 -5.96322e-06 1.16098e-06 -566.082 283.254 14.6759
3 4.7072e-06 3.51484e-06 -2.67515e-05 -531.074 -104.484 -47.6803
ITEM: TIMESTEP
320
ITEM: NUMBER OF ATOMS
3
ITEM: BOX BOUNDS mm mm mm
-1.0000000000000000e-03 1.0000000000000000e-03
-1.0000000000000000e-03 1.0000000000000000e-03
-1.0000000000000000e-03 1.0000000000000000e-03
ITEM: ATOMS id x y z vx vy vz
1 -0.000110878 0.000174914 1.62334e-05 -118.045 184.452 -63.1306
2 0.000120122 -5.96147e-05 6.1844e-06 127.664 -77.3045 -7.80181
3 0.00011291 2.15456e-05 -2.24659e-05 117.824 35.563 51.9093
ITEM: TIMESTEP
330
ITEM: NUMBER OF ATOMS
3
ITEM: BOX BOUNDS mm mm mm
-1.0000000000000000e-03 1.0000000000000000e-03
-1.0000000000000000e-03 1.0000000000000000e-03
-1.0000000000000000e-03 1.0000000000000000e-03
ITEM: ATOMS id x y z vx vy vz
1 4.7213e-05 -7.49322e-05 -4.42767e-05 -425.738 677.444 -19.8383
2 -5.15773e-05 2.6345e-05 -3.51023e-06 463.253 -200.746 -8.32987
3 -4.82445e-05 -1.02681e-05 3.33143e-05 439.08 56.9941 26.3449
ITEM: TIMESTEP
340
ITEM: NUMBER OF ATOMS
3
ITEM: BOX BOUNDS mm mm mm
-1.0000000000000000e-03 1.0000000000000000e-03
-1.0000000000000000e-03 1.0000000000000000e-03
-1.0000000000000000e-03 1.0000000000000000e-03
ITEM: ATOMS id x y z vx vy vz
1 8.20558e-05 -0.000130409 -6.18487e-06 273.321 -429.827 65.6674
2 -8.95929e-05 3.72113e-05 -4.69438e-06 -296.753 146.663 10.5741
3 -8.47518e-05 -1.00921e-05 7.82543e-06 -277.13 -53.405 -58.7199
ITEM: TIMESTEP
350
ITEM: NUMBER OF ATOMS
3
ITEM: BOX BOUNDS mm mm mm
-1.0000000000000000e-03 1.0000000000000000e-03
-1.0000000000000000e-03 1.0000000000000000e-03
-1.0000000000000000e-03 1.0000000000000000e-03
ITEM: ATOMS id x y z vx vy vz
1 -7.56463e-05 0.000118565 3.44481e-05 285.062 -451.9 -6.39063
2 8.18152e-05 -3.95079e-05 5.34218e-06 -310.061 122.432 4.42537
3 7.64618e-05 1.35294e-05 -3.51498e-05 -294.046 -27.8003 -4.08532
ITEM: TIMESTEP
360
ITEM: NUMBER OF ATOMS
3
ITEM: BOX BOUNDS mm mm mm
-1.0000000000000000e-03 1.0000000000000000e-03
-1.0000000000000000e-03 1.0000000000000000e-03
-1.0000000000000000e-03 1.0000000000000000e-03
ITEM: ATOMS id x y z vx vy vz
1 -4.71381e-05 7.36716e-05 -1.02329e-05 -370.49 575.143 -59.9667
2 5.03982e-05 -1.67052e-05 1.91501e-06 397.456 -174.996 6.91056
3 4.80042e-05 4.95554e-07 -4.42096e-07 370.79 45.2609 40.294
ITEM: TIMESTEP
370
ITEM: NUMBER OF ATOMS
3
ITEM: BOX BOUNDS mm mm mm
-1.0000000000000000e-03 1.0000000000000000e-03
-1.0000000000000000e-03 1.0000000000000000e-03
-1.0000000000000000e-03 1.0000000000000000e-03
ITEM: ATOMS id x y z vx vy vz
1 8.90237e-05 -0.000138682 -3.07223e-05 -122.972 194.755 28.4774
2 -9.59156e-05 4.13392e-05 -8.55448e-07 132.088 -29.4673 -12.9942
3 -8.94491e-05 -1.04842e-05 2.19063e-05 128.501 -11.1843 -4.58881
ITEM: TIMESTEP
380
ITEM: NUMBER OF ATOMS
3
ITEM: BOX BOUNDS mm mm mm
-1.0000000000000000e-03 1.0000000000000000e-03
-1.0000000000000000e-03 1.0000000000000000e-03
-1.0000000000000000e-03 1.0000000000000000e-03
ITEM: ATOMS id x y z vx vy vz
1 8.11458e-06 -1.38969e-05 1.717e-05 388.943 -602.68 41.3869
2 -8.99932e-06 -3.27521e-06 -1.02821e-05 -416.406 168.022 -4.38282
3 -9.76994e-06 5.29697e-06 -4.37942e-06 -388.931 -31.6203 -30.5423
ITEM: TIMESTEP
390
ITEM: NUMBER OF ATOMS
3
ITEM: BOX BOUNDS mm mm mm
-1.0000000000000000e-03 1.0000000000000000e-03
-1.0000000000000000e-03 1.0000000000000000e-03
-1.0000000000000000e-03 1.0000000000000000e-03
ITEM: ATOMS id x y z vx vy vz
1 -8.56241e-05 0.000132277 1.71794e-05 -38.7549 55.7361 -39.7592
2 9.16878e-05 -3.63828e-05 -3.5827e-06 44.4732 -61.1936 29.219
3 8.49523e-05 6.08197e-06 -1.56071e-05 29.5388 44.9384 -1.86073
ITEM: TIMESTEP
400
ITEM: NUMBER OF ATOMS
3
ITEM: BOX BOUNDS mm mm mm
-1.0000000000000000e-03 1.0000000000000000e-03
-1.0000000000000000e-03 1.0000000000000000e-03
-1.0000000000000000e-03 1.0000000000000000e-03
ITEM: ATOMS id x y z vx vy vz
1 2.58012e-05 -3.91462e-05 -2.52116e-05 -343.164 531.007 -20.8084
2 -2.86357e-05 2.11766e-05 1.74921e-05 367.545 -133.608 1.01141
3 -2.36859e-05 -1.16719e-05 -3.02569e-06 342.222 13.1247 19.5326
ITEM: TIMESTEP
410
ITEM: NUMBER OF ATOMS
3
ITEM: BOX BOUNDS mm mm mm
-1.0000000000000000e-03 1.0000000000000000e-03
-1.0000000000000000e-03 1.0000000000000000e-03
-1.0000000000000000e-03 1.0000000000000000e-03
ITEM: ATOMS id x y z vx vy vz
1 6.84802e-05 -0.000106486 -8.44146e-06 170.671 -258.213 43.0129
2 -7.84101e-05 3.58714e-05 -3.28226e-06 -231.404 232.764 -70.4684
3 -6.40071e-05 -1.2124e-05 8.76702e-06 -113.141 -169.255 38.474
ITEM: TIMESTEP
420
ITEM: NUMBER OF ATOMS
3
ITEM: BOX BOUNDS mm mm mm
-1.0000000000000000e-03 1.0000000000000000e-03
-1.0000000000000000e-03 1.0000000000000000e-03
-1.0000000000000000e-03 1.0000000000000000e-03
ITEM: ATOMS id x y z vx vy vz
1 -5.07526e-05 7.69249e-05 2.1852e-05 247.249 -385.972 1.03485
2 6.54575e-05 -5.75701e-05 -3.75698e-05 -276.227 102.98 19.5709
3 3.7011e-05 3.86126e-05 1.70387e-05 -238.589 -16.6295 -25.1862
ITEM: TIMESTEP
430
ITEM: NUMBER OF ATOMS
3
ITEM: BOX BOUNDS mm mm mm
-1.0000000000000000e-03 1.0000000000000000e-03
-1.0000000000000000e-03 1.0000000000000000e-03
-1.0000000000000000e-03 1.0000000000000000e-03
ITEM: ATOMS id x y z vx vy vz
1 -4.27011e-05 6.72457e-05 -4.52384e-06 -253.23 387.099 -38.3898
2 4.6012e-05 -1.03423e-05 1.41476e-05 320.795 -253.372 56.0761
3 4.31429e-05 -4.82822e-06 -1.7019e-05 194.613 159.86 -25.3731
ITEM: TIMESTEP
440
ITEM: NUMBER OF ATOMS
3
ITEM: BOX BOUNDS mm mm mm
-1.0000000000000000e-03 1.0000000000000000e-03
-1.0000000000000000e-03 1.0000000000000000e-03
-1.0000000000000000e-03 1.0000000000000000e-03
ITEM: ATOMS id x y z vx vy vz
1 6.26126e-05 -9.71325e-05 -2.03551e-05 -124.867 203.351 14.5539
2 -7.8475e-05 5.64255e-05 2.5436e-05 128.627 6.42434 -38.1743
3 -5.03897e-05 -3.34262e-05 -1.24298e-05 139.245 -49.6375 31.0052
ITEM: TIMESTEP
450
ITEM: NUMBER OF ATOMS
3
ITEM: BOX BOUNDS mm mm mm
-1.0000000000000000e-03 1.0000000000000000e-03
-1.0000000000000000e-03 1.0000000000000000e-03
-1.0000000000000000e-03 1.0000000000000000e-03
ITEM: ATOMS id x y z vx vy vz
1 1.32996e-05 -2.42589e-05 8.42895e-06 276.082 -435.263 26.7467
2 -1.08974e-05 -1.48125e-05 -2.08076e-05 -352.077 241.957 -31.2068
3 -2.02925e-05 1.90938e-05 1.26728e-05 -218.678 -136.67 7.99253
ITEM: TIMESTEP
460
ITEM: NUMBER OF ATOMS
3
ITEM: BOX BOUNDS mm mm mm
-1.0000000000000000e-03 1.0000000000000000e-03
-1.0000000000000000e-03 1.0000000000000000e-03
-1.0000000000000000e-03 1.0000000000000000e-03
ITEM: ATOMS id x y z vx vy vz
1 -6.17605e-05 9.87474e-05 1.12452e-05 2.16777 -17.5743 -21.3902
2 7.78145e-05 -4.91513e-05 -1.54476e-05 22.2092 -106.142 36.9421
3 5.02827e-05 2.47439e-05 1.11724e-06 -41.0811 105.011 -23.5877
ITEM: TIMESTEP
470
ITEM: NUMBER OF ATOMS
3
ITEM: BOX BOUNDS mm mm mm
-1.0000000000000000e-03 1.0000000000000000e-03
-1.0000000000000000e-03 1.0000000000000000e-03
-1.0000000000000000e-03 1.0000000000000000e-03
ITEM: ATOMS id x y z vx vy vz
1 1.22444e-05 -1.66255e-05 -1.36812e-05 -248.11 410.201 -14.5559
2 -2.12335e-05 3.31317e-05 2.19648e-05 315.464 -179.606 16.8005
3 -1.38644e-06 -2.80688e-05 -1.66124e-05 208.182 77.95 -1.84021
ITEM: TIMESTEP
480
ITEM: NUMBER OF ATOMS
3
ITEM: BOX BOUNDS mm mm mm
-1.0000000000000000e-03 1.0000000000000000e-03
-1.0000000000000000e-03 1.0000000000000000e-03
-1.0000000000000000e-03 1.0000000000000000e-03
ITEM: ATOMS id x y z vx vy vz
1 4.96246e-05 -8.61319e-05 -7.17797e-06 97.096 -145.277 21.8709
2 -6.39847e-05 3.1571e-05 4.9936e-06 -148.109 172.07 -36.2204
3 -4.32805e-05 -9.92912e-06 -8.82863e-07 -40.2181 -128.954 21.238
ITEM: TIMESTEP
490
ITEM: NUMBER OF ATOMS
3
ITEM: BOX BOUNDS mm mm mm
-1.0000000000000000e-03 1.0000000000000000e-03
-1.0000000000000000e-03 1.0000000000000000e-03
-1.0000000000000000e-03 1.0000000000000000e-03
ITEM: ATOMS id x y z vx vy vz
1 -3.11246e-05 4.90768e-05 1.04334e-05 181.602 -326.966 3.87505
2 4.49638e-05 -4.38216e-05 -2.24144e-05 -232.627 95.5862 -4.09184
3 1.6836e-05 2.9151e-05 1.12256e-05 -165.322 -10.8863 -3.14764
ITEM: TIMESTEP
500
ITEM: NUMBER OF ATOMS
3
ITEM: BOX BOUNDS mm mm mm
-1.0000000000000000e-03 1.0000000000000000e-03
-1.0000000000000000e-03 1.0000000000000000e-03
-1.0000000000000000e-03 1.0000000000000000e-03
ITEM: ATOMS id x y z vx vy vz
1 -3.16678e-05 6.18065e-05 -8.75033e-07 -158.179 268.864 -18.8416
2 4.05229e-05 -1.11758e-05 -1.48344e-06 233.629 -197.178 35.5337
3 3.08491e-05 -6.11385e-06 -4.03273e-06 91.4673 115.229 -21.2789
ITEM: TIMESTEP
510
ITEM: NUMBER OF ATOMS
3
ITEM: BOX BOUNDS mm mm mm
-1.0000000000000000e-03 1.0000000000000000e-03
-1.0000000000000000e-03 1.0000000000000000e-03
-1.0000000000000000e-03 1.0000000000000000e-03
ITEM: ATOMS id x y z vx vy vz
1 4.0102e-05 -7.15816e-05 -1.07387e-05 -96.8352 205.344 4.13788
2 -5.99864e-05 4.51345e-05 1.87158e-05 120.438 -5.71022 -6.24861
3 -2.45461e-05 -2.32503e-05 -1.39392e-05 109.446 -50.6458 7.07231
ITEM: TIMESTEP
520
ITEM: NUMBER OF ATOMS
3
ITEM: BOX BOUNDS mm mm mm
-1.0000000000000000e-03 1.0000000000000000e-03
-1.0000000000000000e-03 1.0000000000000000e-03
-1.0000000000000000e-03 1.0000000000000000e-03
ITEM: ATOMS id x y z vx vy vz
1 1.17178e-05 -3.05304e-05 2.56736e-06 179.962 -339.446 14.7835
2 -1.34255e-05 -8.74839e-06 -5.83579e-06 -267.214 183.503 -30.2185
3 -1.84525e-05 1.67594e-05 2.07404e-06 -116.587 -72.3175 17.3005
ITEM: TIMESTEP
530
ITEM: NUMBER OF ATOMS
3
ITEM: BOX BOUNDS mm mm mm
-1.0000000000000000e-03 1.0000000000000000e-03
-1.0000000000000000e-03 1.0000000000000000e-03
-1.0000000000000000e-03 1.0000000000000000e-03
ITEM: ATOMS id x y z vx vy vz
1 -4.12289e-05 8.03114e-05 5.42557e-06 13.1622 -60.7661 -10.2044
2 6.07266e-05 -3.77103e-05 -1.96422e-05 -0.720022 -71.4628 11.9981
3 2.77899e-05 1.04076e-05 1.05624e-05 -55.1584 84.3952 -6.97086
ITEM: TIMESTEP
540
ITEM: NUMBER OF ATOMS
3
ITEM: BOX BOUNDS mm mm mm
-1.0000000000000000e-03 1.0000000000000000e-03
-1.0000000000000000e-03 1.0000000000000000e-03
-1.0000000000000000e-03 1.0000000000000000e-03
ITEM: ATOMS id x y z vx vy vz
1 5.88034e-06 -3.85086e-06 -8.37785e-06 -167.739 344.96 -9.98172
2 -1.34928e-05 2.33153e-05 4.97487e-06 249.754 -136.674 23.7757
3 6.67148e-06 -2.04621e-05 -3.36855e-06 120.629 18.6344 -13.1727
ITEM: TIMESTEP
550
ITEM: NUMBER OF ATOMS
3
ITEM: BOX BOUNDS mm mm mm
-1.0000000000000000e-03 1.0000000000000000e-03
-1.0000000000000000e-03 1.0000000000000000e-03
-1.0000000000000000e-03 1.0000000000000000e-03
ITEM: ATOMS id x y z vx vy vz
1 3.46072e-05 -7.51391e-05 -6.11558e-06 57.8583 -82.6364 13.5693
2 -5.1199e-05 2.36442e-05 1.3604e-05 -105.231 121.4 -11.5801
3 -2.73003e-05 2.40046e-06 -1.07356e-05 8.0639 -82.7815 2.2912
ITEM: TIMESTEP
560
ITEM: NUMBER OF ATOMS
3
ITEM: BOX BOUNDS mm mm mm
-1.0000000000000000e-03 1.0000000000000000e-03
-1.0000000000000000e-03 1.0000000000000000e-03
-1.0000000000000000e-03 1.0000000000000000e-03
ITEM: ATOMS id x y z vx vy vz
1 -2.00007e-05 3.35088e-05 7.37163e-06 128.663 -291.423 5.59154
2 3.52116e-05 -3.07734e-05 -6.82933e-06 -188.12 69.6348 -16.6887
3 1.53585e-06 1.60737e-05 -2.5882e-06 -110.395 31.5873 8.68127
ITEM: TIMESTEP
570
ITEM: NUMBER OF ATOMS
3
ITEM: BOX BOUNDS mm mm mm
-1.0000000000000000e-03 1.0000000000000000e-03
-1.0000000000000000e-03 1.0000000000000000e-03
-1.0000000000000000e-03 1.0000000000000000e-03
ITEM: ATOMS id x y z vx vy vz
1 -2.34897e-05 5.64388e-05 2.12606e-06 -107.137 197.605 -14.4404
2 3.23311e-05 -7.80933e-06 -1.35936e-05 184.433 -133.534 7.05504
3 2.36914e-05 -1.21433e-05 5.79829e-06 24.2401 49.6296 4.67735
ITEM: TIMESTEP
580
ITEM: NUMBER OF ATOMS
3
ITEM: BOX BOUNDS mm mm mm
-1.0000000000000000e-03 1.0000000000000000e-03
-1.0000000000000000e-03 1.0000000000000000e-03
-1.0000000000000000e-03 1.0000000000000000e-03
ITEM: ATOMS id x y z vx vy vz
1 2.77994e-05 -5.46802e-05 -1.06477e-05 -72.9691 192.798 -3.86714
2 -4.81004e-05 2.89731e-05 6.54874e-07 92.1411 -2.80224 11.9227
3 -8.63922e-06 -6.64412e-06 4.85009e-06 96.6878 -60.2552 -4.74861
ITEM: TIMESTEP
590
ITEM: NUMBER OF ATOMS
3
ITEM: BOX BOUNDS mm mm mm
-1.0000000000000000e-03 1.0000000000000000e-03
-1.0000000000000000e-03 1.0000000000000000e-03
-1.0000000000000000e-03 1.0000000000000000e-03
ITEM: ATOMS id x y z vx vy vz
1 9.38034e-06 -3.00461e-05 -4.44415e-06 129.539 -262.177 13.5047
2 -7.7437e-06 -5.2896e-06 7.61807e-06 -220.474 104.35 -1.61203
3 -2.12346e-05 1.34458e-05 -5.36095e-06 -46.558 3.86146 -10.9562
ITEM: TIMESTEP
600
ITEM: NUMBER OF ATOMS
3
ITEM: BOX BOUNDS mm mm mm
-1.0000000000000000e-03 1.0000000000000000e-03
-1.0000000000000000e-03 1.0000000000000000e-03
-1.0000000000000000e-03 1.0000000000000000e-03
ITEM: ATOMS id x y z vx vy vz
1 -3.0069e-05 6.26574e-05 7.18918e-06 12.4853 -70.2116 4.08213
2 4.8817e-05 -2.0308e-05 1.60446e-06 17.5599 -40.2817 -7.78447
3 1.41774e-05 -5.42349e-06 -1.27347e-05 -82.706 51.5236 0.385795
ITEM: TIMESTEP
610
ITEM: NUMBER OF ATOMS
3
ITEM: BOX BOUNDS mm mm mm
-1.0000000000000000e-03 1.0000000000000000e-03
-1.0000000000000000e-03 1.0000000000000000e-03
-1.0000000000000000e-03 1.0000000000000000e-03
ITEM: ATOMS id x y z vx vy vz
1 3.79361e-06 1.31308e-06 1.77705e-06 -123.131 267.859 -11.436
2 -1.58671e-05 1.12225e-05 -1.57316e-06 191.253 -63.7154 3.00327
3 1.61697e-05 -7.89265e-06 -5.97742e-06 77.7803 -40.7615 9.05817
ITEM: TIMESTEP
620
ITEM: NUMBER OF ATOMS
3
ITEM: BOX BOUNDS mm mm mm
-1.0000000000000000e-03 1.0000000000000000e-03
-1.0000000000000000e-03 1.0000000000000000e-03
-1.0000000000000000e-03 1.0000000000000000e-03
ITEM: ATOMS id x y z vx vy vz
1 2.67006e-05 -5.87805e-05 -7.83918e-06 42.7894 -48.7246 -5.61844
2 -3.51733e-05 8.12001e-06 5.86425e-06 -101.78 33.9607 10.983
3 -2.42512e-05 1.40722e-05 -1.45601e-06 50.6908 5.47027 -2.72185
ITEM: TIMESTEP
630
ITEM: NUMBER OF ATOMS
3
ITEM: BOX BOUNDS mm mm mm
-1.0000000000000000e-03 1.0000000000000000e-03
-1.0000000000000000e-03 1.0000000000000000e-03
-1.0000000000000000e-03 1.0000000000000000e-03
ITEM: ATOMS id x y z vx vy vz
1 -1.5694e-05 2.29251e-05 -5.45526e-06 104.316 -228.198 9.68948
2 2.99271e-05 -7.91517e-06 9.22057e-06 -112.833 27.1381 -4.58387
3 -6.40197e-06 -6.18465e-06 -6.60839e-06 -121.507 55.4589 -6.80985
ITEM: TIMESTEP
640
ITEM: NUMBER OF ATOMS
3
ITEM: BOX BOUNDS mm mm mm
-1.0000000000000000e-03 1.0000000000000000e-03
-1.0000000000000000e-03 1.0000000000000000e-03
-1.0000000000000000e-03 1.0000000000000000e-03
ITEM: ATOMS id x y z vx vy vz
1 -1.98067e-05 4.39833e-05 4.64015e-06 -87.3447 141.077 7.39762
2 1.5054e-05 -4.7126e-06 1.5552e-06 136.201 -35.347 -9.13099
3 3.05328e-05 -1.0346e-05 -1.13548e-05 8.97206 -40.9745 0.15428
ITEM: TIMESTEP
650
ITEM: NUMBER OF ATOMS
3
ITEM: BOX BOUNDS mm mm mm
-1.0000000000000000e-03 1.0000000000000000e-03
-1.0000000000000000e-03 1.0000000000000000e-03
-1.0000000000000000e-03 1.0000000000000000e-03
ITEM: ATOMS id x y z vx vy vz
1 2.26416e-05 -4.01033e-05 3.39756e-06 -60.6387 151.438 -8.84524
2 -3.04426e-05 7.20425e-06 2.56754e-06 26.0304 -19.2244 10.4423
3 -1.03882e-05 1.25868e-05 -1.06296e-05 130.99 -24.2841 0.591034
ITEM: TIMESTEP
660
ITEM: NUMBER OF ATOMS
3
ITEM: BOX BOUNDS mm mm mm
-1.0000000000000000e-03 1.0000000000000000e-03
-1.0000000000000000e-03 1.0000000000000000e-03
-1.0000000000000000e-03 1.0000000000000000e-03
ITEM: ATOMS id x y z vx vy vz
1 8.03895e-06 -2.3469e-05 -5.39155e-06 109.079 -191.261 -5.98089
2 2.40408e-06 2.97027e-06 1.01565e-05 -113.993 36.2021 3.26693
3 -2.80298e-05 8.61033e-07 -7.60907e-06 -85.1399 54.2165 3.14651
ITEM: TIMESTEP
670
ITEM: NUMBER OF ATOMS
3
ITEM: BOX BOUNDS mm mm mm
-1.0000000000000000e-03 1.0000000000000000e-03
-1.0000000000000000e-03 1.0000000000000000e-03
-1.0000000000000000e-03 1.0000000000000000e-03
ITEM: ATOMS id x y z vx vy vz
1 -2.71299e-05 4.56598e-05 -5.11087e-06 11.8432 -55.12 5.70104
2 2.14394e-05 -9.3636e-06 6.91144e-06 28.6584 6.7147 -7.36257
3 2.80214e-05 -1.1234e-05 -5.87504e-06 -93.7101 -11.1777 -0.451235
ITEM: TIMESTEP
680
ITEM: NUMBER OF ATOMS
3
ITEM: BOX BOUNDS mm mm mm
-1.0000000000000000e-03 1.0000000000000000e-03
-1.0000000000000000e-03 1.0000000000000000e-03
-1.0000000000000000e-03 1.0000000000000000e-03
ITEM: ATOMS id x y z vx vy vz
1 3.63141e-06 1.30713e-06 2.56864e-06 -112.035 193.1 6.57232
2 -1.06243e-05 2.91932e-07 4.81299e-06 64.7159 -43.6641 1.32183
3 1.33469e-05 5.57218e-06 -1.25192e-05 150.114 -34.3251 -7.35158
ITEM: TIMESTEP
690
ITEM: NUMBER OF ATOMS
3
ITEM: BOX BOUNDS mm mm mm
-1.0000000000000000e-03 1.0000000000000000e-03
-1.0000000000000000e-03 1.0000000000000000e-03