ITEM: TIMESTEP
0
ITEM: NUMBER OF ATOMS
3
ITEM: BOX BOUNDS mm mm mm
-1.0000000000000000e-03 1.0000000000000000e-03
-1.0000000000000000e-03 1.0000000000000000e-03
-1.0000000000000000e-03 1.0000000000000000e-03
ITEM: ATOMS id x y z vx vy vz
1 -3.74313e-05 -8.08375e-05 6.77184e-05 0 0 0
2 -4.37057e-05 4.93681e-05 0.000587986 0 0 0
3 -0.000145447 3.38926e-05 0.00070544 0 0 0
ITEM: TIMESTEP
10
ITEM: NUMBER OF ATOMS
3
ITEM: BOX BOUNDS mm mm mm
-1.0000000000000000e-03 1.0000000000000000e-03
-1.0000000000000000e-03 1.0000000000000000e-03
-1.0000000000000000e-03 1.0000000000000000e-03
ITEM: ATOMS id x y z vx vy vz
1 7.38769e-06 1.62885e-05 -1.42553e-05 -152.142 -328.552 -113.272
2 8.52113e-06 -1.02786e-05 -0.000111109 -178.635 201.485 -966.295
3 2.95227e-05 -7.06427e-06 -0.000132255 -591.226 138.855 -1159.55
ITEM: TIMESTEP
20
ITEM: NUMBER OF ATOMS
3
ITEM: BOX BOUNDS mm mm mm
-1.0000000000000000e-03 1.0000000000000000e-03
-1.0000000000000000e-03 1.0000000000000000e-03
-1.0000000000000000e-03 1.0000000000000000e-03
ITEM: ATOMS id x y z vx vy vz
1 3.09961e-05 6.70778e-05 -5.63024e-05 58.8199 127.693 49.5674
2 3.65317e-05 -4.13671e-05 -0.000470651 67.8202 -78.5436 422.379
3 0.000120743 -2.85913e-05 -0.00056666 230.619 -53.7169 504.859
ITEM: TIMESTEP
30
ITEM: NUMBER OF ATOMS
3
ITEM: BOX BOUNDS mm mm mm
-1.0000000000000000e-03 1.0000000000000000e-03
-1.0000000000000000e-03 1.0000000000000000e-03
-1.0000000000000000e-03 1.0000000000000000e-03
ITEM: ATOMS id x y z vx vy vz
1 -1.90363e-05 -4.12924e-05 3.4218e-05 116.197 250.666 77.7494
2 -2.17964e-05 2.51768e-05 0.000301291 137.37 -153.559 664.38
3 -7.44883e-05 1.71164e-05 0.000359274 450.289 -106.106 799.835
ITEM: TIMESTEP
40
ITEM: NUMBER OF ATOMS
3
ITEM: BOX BOUNDS mm mm mm
-1.0000000000000000e-03 1.0000000000000000e-03
-1.0000000000000000e-03 1.0000000000000000e-03
-1.0000000000000000e-03 1.0000000000000000e-03
ITEM: ATOMS id x y z vx vy vz
1 -2.12973e-05 -4.56765e-05 3.14222e-05 -98.4299 -214.021 -77.9176
2 -2.53566e-05 2.76924e-05 0.000279044 -113.296 131.695 -663.481
3 -8.17731e-05 1.91524e-05 0.000338141 -386.519 89.9739 -790.958
ITEM: TIMESTEP
50
ITEM: NUMBER OF ATOMS
3
ITEM: BOX BOUNDS mm mm mm
-1.0000000000000000e-03 1.0000000000000000e-03
-1.0000000000000000e-03 1.0000000000000000e-03
-1.0000000000000000e-03 1.0000000000000000e-03
ITEM: ATOMS id x y z vx vy vz
1 2.5267e-05 5.4967e-05 -4.68631e-05 -68.3284 -145.419 -33.8228
2 2.9417e-05 -3.40152e-05 -0.000389202 -84.3757 88.3899 -291.371
3 9.91784e-05 -2.33925e-05 -0.000467526 -258.819 62.2902 -361.164
ITEM: TIMESTEP
60
ITEM: NUMBER OF ATOMS
3
ITEM: BOX BOUNDS mm mm mm
-1.0000000000000000e-03 1.0000000000000000e-03
-1.0000000000000000e-03 1.0000000000000000e-03
-1.0000000000000000e-03 1.0000000000000000e-03
ITEM: ATOMS id x y z vx vy vz
1 9.38617e-06 1.99283e-05 -9.95072e-06 116.265 251.706 83.579
2 1.21661e-05 -1.22641e-05 -7.64737e-05 135.972 -154.472 710.809
3 3.5183e-05 -8.86299e-06 -9.85563e-05 453.088 -106.252 852.676
ITEM: TIMESTEP
70
ITEM: NUMBER OF ATOMS
3
ITEM: BOX BOUNDS mm mm mm
-1.0000000000000000e-03 1.0000000000000000e-03
-1.0000000000000000e-03 1.0000000000000000e-03
-1.0000000000000000e-03 1.0000000000000000e-03
ITEM: ATOMS id x y z vx vy vz
1 -2.70125e-05 -5.83862e-05 4.26205e-05 17.6592 34.9493 -7.09053
2 -3.16471e-05 3.5573e-05 0.000373318 26.6726 -20.3051 -56.0333
3 -0.000104841 2.443e-05 0.000449888 58.8664 -15.9636 -52.8771
ITEM: TIMESTEP
80
ITEM: NUMBER OF ATOMS
3
ITEM: BOX BOUNDS mm mm mm
-1.0000000000000000e-03 1.0000000000000000e-03
-1.0000000000000000e-03 1.0000000000000000e-03
-1.0000000000000000e-03 1.0000000000000000e-03
ITEM: ATOMS id x y z vx vy vz
1 1.42066e-06 4.26618e-06 -1.32852e-05 -113.075 -243.14 -70.0444
2 1.20773e-07 -3.17775e-06 -0.000100225 -136.735 148.385 -598.2
3 8.76283e-06 -1.6937e-06 -0.000111472 -434.138 103.5 -729.194
ITEM: TIMESTEP
90
ITEM: NUMBER OF ATOMS
3
ITEM: BOX BOUNDS mm mm mm
-1.0000000000000000e-03 1.0000000000000000e-03
-1.0000000000000000e-03 1.0000000000000000e-03
-1.0000000000000000e-03 1.0000000000000000e-03
ITEM: ATOMS id x y z vx vy vz
1 2.3809e-05 5.11701e-05 -3.44209e-05 27.261 62.9544 37.2243
2 2.94989e-05 -3.13498e-05 -0.000284133 25.3461 -39.8797 312.125
3 9.09346e-05 -2.21378e-05 -0.000353829 117.48 -25.2491 363.053
ITEM: TIMESTEP
100
ITEM: NUMBER OF ATOMS
3
ITEM: BOX BOUNDS mm mm mm
-1.0000000000000000e-03 1.0000000000000000e-03
-1.0000000000000000e-03 1.0000000000000000e-03
-1.0000000000000000e-03 1.0000000000000000e-03
ITEM: ATOMS id x y z vx vy vz
1 -1.07549e-05 -2.43209e-05 2.41595e-05 92.6356 197.955 45.0438
2 -1.10459e-05 1.49807e-05 0.000210964 117.06 -119.921 386.296
3 -4.44283e-05 9.7134e-06 0.000246967 349.118 -85.1786 486.114
ITEM: TIMESTEP
110
ITEM: NUMBER OF ATOMS
3
ITEM: BOX BOUNDS mm mm mm
-1.0000000000000000e-03 1.0000000000000000e-03
-1.0000000000000000e-03 1.0000000000000000e-03
-1.0000000000000000e-03 1.0000000000000000e-03
ITEM: ATOMS id x y z vx vy vz
1 -1.79109e-05 -3.7782e-05 1.65981e-05 -60.2957 -135.122 -53.3989
2 -2.32308e-05 2.25148e-05 0.000154071 -65.3503 83.9829 -446.211
3 -6.60528e-05 1.61641e-05 0.000200496 -245.629 55.8858 -527.489
ITEM: TIMESTEP
120
ITEM: NUMBER OF ATOMS
3
ITEM: BOX BOUNDS mm mm mm
-1.0000000000000000e-03 1.0000000000000000e-03
-1.0000000000000000e-03 1.0000000000000000e-03
-1.0000000000000000e-03 1.0000000000000000e-03
ITEM: ATOMS id x y z vx vy vz
1 1.63887e-05 3.64587e-05 -3.14001e-05 -61.8205 -127.08 -15.1787
2 2.13818e-05 -2.21727e-05 -0.000250104 -96.4635 73.2569 -132.53
3 6.30581e-05 -1.60486e-05 -0.000313898 -208.509 58.512 -210.276
ITEM: TIMESTEP
130
ITEM: NUMBER OF ATOMS
3
ITEM: BOX BOUNDS mm mm mm
-1.0000000000000000e-03 1.0000000000000000e-03
-1.0000000000000000e-03 1.0000000000000000e-03
-1.0000000000000000e-03 1.0000000000000000e-03
ITEM: ATOMS id x y z vx vy vz
1 9.78488e-06 1.97075e-05 -3.17196e-06 78.677 173.346 54.5387
2 1.63834e-05 -1.13902e-05 -2.15694e-05 105.56 -103.789 442.537
3 3.16742e-05 -9.53032e-06 -5.093e-05 296.544 -75.7035 562.327
ITEM: TIMESTEP
140
ITEM: NUMBER OF ATOMS
3
ITEM: BOX BOUNDS mm mm mm
-1.0000000000000000e-03 1.0000000000000000e-03
-1.0000000000000000e-03 1.0000000000000000e-03
-1.0000000000000000e-03 1.0000000000000000e-03
ITEM: ATOMS id x y z vx vy vz
1 -1.89616e-05 -4.16655e-05 2.64549e-05 26.3934 48.1293 -11.2037
2 -2.59997e-05 2.46135e-05 0.000226777 51.164 -25.6276 -79.8564
3 -7.05394e-05 1.80551e-05 0.000293885 71.5739 -24.4083 -56.9532
ITEM: TIMESTEP
150
ITEM: NUMBER OF ATOMS
3
ITEM: BOX BOUNDS mm mm mm
-1.0000000000000000e-03 1.0000000000000000e-03
-1.0000000000000000e-03 1.0000000000000000e-03
-1.0000000000000000e-03 1.0000000000000000e-03
ITEM: ATOMS id x y z vx vy vz
1 -2.16538e-06 -1.72526e-06 -1.25257e-05 -82.1405 -176.925 -41.9648
2 -6.44867e-06 9.27961e-09 -8.5431e-05 -136.16 100.247 -361.866
3 -6.42959e-07 1.3608e-06 -8.3916e-05 -278.358 83.0276 -462.949
ITEM: TIMESTEP
160
ITEM: NUMBER OF ATOMS
3
ITEM: BOX BOUNDS mm mm mm
-1.0000000000000000e-03 1.0000000000000000e-03
-1.0000000000000000e-03 1.0000000000000000e-03
-1.0000000000000000e-03 1.0000000000000000e-03
ITEM: ATOMS id x y z vx vy vz
1 1.78829e-05 3.81732e-05 -2.00532e-05 6.87681 26.422 29.1492
2 3.26587e-05 -2.06041e-05 -0.000162032 -5.49461 -16.7193 230.433
3 5.74298e-05 -1.94229e-05 -0.000228918 54.38 -10.4156 249.168
ITEM: TIMESTEP
170
ITEM: NUMBER OF ATOMS
3
ITEM: BOX BOUNDS mm mm mm
-1.0000000000000000e-03 1.0000000000000000e-03
-1.0000000000000000e-03 1.0000000000000000e-03
-1.0000000000000000e-03 1.0000000000000000e-03
ITEM: ATOMS id x y z vx vy vz
1 -4.97806e-06 -1.42166e-05 1.80588e-05 71.6889 152.455 23.5707
2 -4.56773e-06 8.06595e-06 0.000147136 139.63 -80.7792 207.617
3 -2.48035e-05 6.11629e-06 0.00016482 220.653 -77.1983 308.663
ITEM: TIMESTEP
180
ITEM: NUMBER OF ATOMS
3
ITEM: BOX BOUNDS mm mm mm
-1.0000000000000000e-03 1.0000000000000000e-03
-1.0000000000000000e-03 1.0000000000000000e-03
-1.0000000000000000e-03 1.0000000000000000e-03
ITEM: ATOMS id x y z vx vy vz
1 -1.45785e-05 -3.00475e-05 6.59682e-06 -32.7998 -85.6743 -38.4959
2 -2.96463e-05 1.54816e-05 7.37382e-05 -43.7807 48.5209 -296.964
3 -4.21694e-05 1.51969e-05 0.00012745 -141.281 39.9387 -347.648
ITEM: TIMESTEP
190
ITEM: NUMBER OF ATOMS
3
ITEM: BOX BOUNDS mm mm mm
-1.0000000000000000e-03 1.0000000000000000e-03
-1.0000000000000000e-03 1.0000000000000000e-03
-1.0000000000000000e-03 1.0000000000000000e-03
ITEM: ATOMS id x y z vx vy vz
1 9.80845e-06 2.43726e-05 -2.13934e-05 -54.2385 -103.151 -1.52781
2 1.37655e-05 -1.08165e-05 -0.000195959 -119.712 50.757 -107.078
3 4.01051e-05 -1.48438e-05 -0.000172979 -136.308 56.3602 -67.6474
ITEM: TIMESTEP
200
ITEM: NUMBER OF ATOMS
3
ITEM: BOX BOUNDS mm mm mm
-1.0000000000000000e-03 1.0000000000000000e-03
-1.0000000000000000e-03 1.0000000000000000e-03
-1.0000000000000000e-03 1.0000000000000000e-03
ITEM: ATOMS id x y z vx vy vz
1 9.54677e-06 1.699e-05 2.37156e-06 50.2986 120.528 36.7667
2 2.36047e-05 -9.01288e-06 -2.37204e-05 81.0165 -53.3432 338.678
3 2.00543e-05 -9.13088e-06 -2.54766e-07 187.528 -71.2614 302.136
ITEM: TIMESTEP
210
ITEM: NUMBER OF ATOMS
3
ITEM: BOX BOUNDS mm mm mm
-1.0000000000000000e-03 1.0000000000000000e-03
-1.0000000000000000e-03 1.0000000000000000e-03
-1.0000000000000000e-03 1.0000000000000000e-03
ITEM: ATOMS id x y z vx vy vz
1 -1.26899e-05 -3.00235e-05 1.58975e-05 31.0424 45.9257 -16.3311
2 -2.85857e-05 1.33837e-05 0.000177001 86.214 -28.3489 -19.4486
3 -3.85101e-05 1.71863e-05 0.000150302 42.8337 -19.6235 -105.231
ITEM: TIMESTEP
220
ITEM: NUMBER OF ATOMS
3
ITEM: BOX BOUNDS mm mm mm
-1.0000000000000000e-03 1.0000000000000000e-03
-1.0000000000000000e-03 1.0000000000000000e-03
-1.0000000000000000e-03 1.0000000000000000e-03
ITEM: ATOMS id x y z vx vy vz
1 -4.5424e-06 -2.55632e-06 -1.36541e-05 -56.867 -121.982 -23.1232
2 -1.30846e-05 2.20195e-06 -4.14514e-05 -133.115 52.6466 -285.62
3 -1.19847e-06 1.2152e-07 -8.52311e-05 -163.038 73.8487 -225.396
ITEM: TIMESTEP
230
ITEM: NUMBER OF ATOMS
3
ITEM: BOX BOUNDS mm mm mm
-1.0000000000000000e-03 1.0000000000000000e-03
-1.0000000000000000e-03 1.0000000000000000e-03
-1.0000000000000000e-03 1.0000000000000000e-03
ITEM: ATOMS id x y z vx vy vz
1 1.28625e-05 2.66009e-05 -9.42838e-06 -7.69948 13.2168 26.6043
2 3.50084e-05 -1.32777e-05 -0.000135003 -32.557 3.29031 133.649
3 3.11853e-05 -1.48074e-05 -0.00010543 30.5003 -16.3824 197.041
ITEM: TIMESTEP
240
ITEM: NUMBER OF ATOMS
3
ITEM: BOX BOUNDS mm mm mm
-1.0000000000000000e-03 1.0000000000000000e-03
-1.0000000000000000e-03 1.0000000000000000e-03
-1.0000000000000000e-03 1.0000000000000000e-03
ITEM: ATOMS id x y z vx vy vz
1 -1.0902e-06 -9.72871e-06 1.88098e-05 58.2689 109.152 8.96854
2 -5.9818e-07 2.19063e-06 8.75027e-05 150.714 -54.4622 181.493
3 -1.27488e-05 7.24912e-06 0.000116796 117.147 -58.8591 123.087
ITEM: TIMESTEP
250
ITEM: NUMBER OF ATOMS
3
ITEM: BOX BOUNDS mm mm mm
-1.0000000000000000e-03 1.0000000000000000e-03
-1.0000000000000000e-03 1.0000000000000000e-03
-1.0000000000000000e-03 1.0000000000000000e-03
ITEM: ATOMS id x y z vx vy vz
1 -1.24837e-05 -2.16366e-05 -1.56829e-06 -14.2902 -59.6559 -37.0248
2 -2.47336e-05 1.83677e-05 6.41636e-05 -67.2767 7.55519 -192.836
3 -3.04684e-05 3.66078e-06 5.02109e-05 -35.5617 53.5982 -221.235
ITEM: TIMESTEP
260
ITEM: NUMBER OF ATOMS
3
ITEM: BOX BOUNDS mm mm mm
-1.0000000000000000e-03 1.0000000000000000e-03
-1.0000000000000000e-03 1.0000000000000000e-03
-1.0000000000000000e-03 1.0000000000000000e-03
ITEM: ATOMS id x y z vx vy vz
1 6.00378e-06 1.70078e-05 -1.7451e-05 -56.348 -67.1557 14.7933
2 1.80756e-05 -6.57457e-06 -0.000105097 -78.7652 67.4916 -55.0388
3 1.41868e-05 -1.1396e-05 -0.000132303 -117.425 2.89271 -38.3864
ITEM: TIMESTEP
270
ITEM: NUMBER OF ATOMS
3
ITEM: BOX BOUNDS mm mm mm
-1.0000000000000000e-03 1.0000000000000000e-03
-1.0000000000000000e-03 1.0000000000000000e-03
-1.0000000000000000e-03 1.0000000000000000e-03
ITEM: ATOMS id x y z vx vy vz
1 1.07907e-05 1.06772e-05 1.07588e-05 35.1265 84.4129 29.0155
2 1.21399e-05 -1.34052e-05 3.79303e-06 80.4122 -52.3945 211.499
3 2.30127e-05 1.66706e-06 -1.18285e-05 89.0141 -34.6336 190.438
ITEM: TIMESTEP
280
ITEM: NUMBER OF ATOMS
3
ITEM: BOX BOUNDS mm mm mm
-1.0000000000000000e-03 1.0000000000000000e-03
-1.0000000000000000e-03 1.0000000000000000e-03
-1.0000000000000000e-03 1.0000000000000000e-03
ITEM: ATOMS id x y z vx vy vz
1 -9.45241e-06 -2.1381e-05 9.8514e-06 40.5648 23.7893 -30.1269
2 -1.91348e-05 1.54284e-05 0.000113338 38.0134 -38.0094 -51.0321
3 -2.51861e-05 6.16656e-06 9.02696e-05 72.9738 12.2825 -37.9513
ITEM: TIMESTEP
290
ITEM: NUMBER OF ATOMS
3
ITEM: BOX BOUNDS mm mm mm
-1.0000000000000000e-03 1.0000000000000000e-03
-1.0000000000000000e-03 1.0000000000000000e-03
-1.0000000000000000e-03 1.0000000000000000e-03
ITEM: ATOMS id x y z vx vy vz
1 -7.9225e-06 1.16299e-06 -2.06976e-05 -49.8416 -80.4802 -6.68655
2 -5.95251e-06 1.14759e-06 -3.59169e-05 -81.4244 65.091 -145.703
3 -8.37167e-06 -2.4997e-06 -4.84385e-05 -114.09 18.5259 -174.479
ITEM: TIMESTEP
300
ITEM: NUMBER OF ATOMS
3
ITEM: BOX BOUNDS mm mm mm
-1.0000000000000000e-03 1.0000000000000000e-03
-1.0000000000000000e-03 1.0000000000000000e-03
-1.0000000000000000e-03 1.0000000000000000e-03
ITEM: ATOMS id x y z vx vy vz
1 1.21773e-05 1.69711e-05 3.61421e-06 -22.8256 21.7355 34.3742
2 1.79739e-05 -1.51724e-05 -6.29713e-05 -12.2829 -13.3474 99.6705
3 2.64742e-05 -2.99617e-06 -9.18473e-05 -8.45931 -7.8311 113.457
ITEM: TIMESTEP
310
ITEM: NUMBER OF ATOMS
3
ITEM: BOX BOUNDS mm mm mm
-1.0000000000000000e-03 1.0000000000000000e-03
-1.0000000000000000e-03 1.0000000000000000e-03
-1.0000000000000000e-03 1.0000000000000000e-03
ITEM: ATOMS id x y z vx vy vz
1 3.36232e-06 -1.09929e-05 2.00594e-05 55.4328 65.1511 -14.7836
2 3.43162e-07 9.82019e-06 6.77589e-05 82.4959 -50.511 90.8545
3 -6.34988e-06 7.32973e-07 6.11743e-05 102.955 -17.7197 103.203
ITEM: TIMESTEP
320
ITEM: NUMBER OF ATOMS
3
ITEM: BOX BOUNDS mm mm mm
-1.0000000000000000e-03 1.0000000000000000e-03
-1.0000000000000000e-03 1.0000000000000000e-03
-1.0000000000000000e-03 1.0000000000000000e-03
ITEM: ATOMS id x y z vx vy vz
1 -1.2846e-05 -1.18029e-05 -1.54536e-05 4.37011 -57.1355 -35.2469
2 -2.08232e-05 5.02151e-06 5.96227e-05 -29.7288 33.6977 -125.002
3 -1.80913e-05 6.96964e-06 1.42715e-05 -27.9506 24.1194 -135.664
ITEM: TIMESTEP
330
ITEM: NUMBER OF ATOMS
3
ITEM: BOX BOUNDS mm mm mm
-1.0000000000000000e-03 1.0000000000000000e-03
-1.0000000000000000e-03 1.0000000000000000e-03
-1.0000000000000000e-03 1.0000000000000000e-03
ITEM: ATOMS id x y z vx vy vz
1 -7.64535e-06 2.45083e-05 -6.75501e-06 -47.1169 -36.2507 56.5967
2 2.04185e-05 -1.8847e-05 -7.96136e-05 -80.984 15.7851 -79.5423
3 8.56995e-06 -6.40772e-06 -7.95719e-05 -71.2594 23.0143 -5.41578
ITEM: TIMESTEP
340
ITEM: NUMBER OF ATOMS
3
ITEM: BOX BOUNDS mm mm mm
-1.0000000000000000e-03 1.0000000000000000e-03
-1.0000000000000000e-03 1.0000000000000000e-03
-1.0000000000000000e-03 1.0000000000000000e-03
ITEM: ATOMS id x y z vx vy vz
1 1.16435e-05 2.35568e-06 2.99977e-05 -21.9116 107.875 0.983689
2 1.18473e-05 1.65066e-06 -3.37635e-05 95.3035 -73.6584 142.736
3 1.44506e-05 -4.96495e-06 1.54508e-05 52.3329 -35.8235 128.837
ITEM: TIMESTEP
350
ITEM: NUMBER OF ATOMS
3
ITEM: BOX BOUNDS mm mm mm
-1.0000000000000000e-03 1.0000000000000000e-03
-1.0000000000000000e-03 1.0000000000000000e-03
-1.0000000000000000e-03 1.0000000000000000e-03
ITEM: ATOMS id x y z vx vy vz
1 2.37948e-06 -2.44095e-05 -6.54418e-06 55.386 -15.6144 -56.2051
2 -2.45059e-05 1.04544e-05 6.54467e-05 8.60332 4.71294 -30.4502
3 -1.31011e-05 1.39319e-05 7.24714e-05 69.4677 9.19526 -7.46437
ITEM: TIMESTEP
360
ITEM: NUMBER OF ATOMS
3
ITEM: BOX BOUNDS mm mm mm
-1.0000000000000000e-03 1.0000000000000000e-03
-1.0000000000000000e-03 1.0000000000000000e-03
-1.0000000000000000e-03 1.0000000000000000e-03
ITEM: ATOMS id x y z vx vy vz
1 -1.29219e-05 8.66277e-06 -3.08724e-05 -2.48266 -92.6901 18.9038
2 4.69994e-06 -3.09975e-06 -3.65596e-05 -87.2423 42.1064 -111.102
3 -1.38851e-05 -5.75392e-06 -9.64458e-06 -76.6568 52.7109 -106.323
ITEM: TIMESTEP
370
ITEM: NUMBER OF ATOMS
3
ITEM: BOX BOUNDS mm mm mm
-1.0000000000000000e-03 1.0000000000000000e-03
-1.0000000000000000e-03 1.0000000000000000e-03
-1.0000000000000000e-03 1.0000000000000000e-03
ITEM: ATOMS id x y z vx vy vz
1 2.10179e-06 1.79323e-05 1.36138e-05 -58.0939 58.4697 47.9195
2 1.5805e-05 -8.72492e-06 -6.04769e-05 31.3455 -20.4675 73.5001
3 2.17296e-05 -1.01876e-05 -4.43918e-05 -30.8169 -37.2663 48.0468
ITEM: TIMESTEP
380
ITEM: NUMBER OF ATOMS
3
ITEM: BOX BOUNDS mm mm mm
-1.0000000000000000e-03 1.0000000000000000e-03
-1.0000000000000000e-03 1.0000000000000000e-03
-1.0000000000000000e-03 1.0000000000000000e-03
ITEM: ATOMS id x y z vx vy vz
1 1.26678e-05 -1.75311e-05 2.38737e-05 22.6658 58.3516 -32.407
2 -7.26094e-06 6.07964e-06 2.92315e-05 49.3321 -37.1688 50.6287
3 -1.61314e-06 1.09295e-05 4.5104e-05 102.18 -23.4096 82.2952
ITEM: TIMESTEP
390
ITEM: NUMBER OF ATOMS
3
ITEM: BOX BOUNDS mm mm mm
-1.0000000000000000e-03 1.0000000000000000e-03
-1.0000000000000000e-03 1.0000000000000000e-03
-1.0000000000000000e-03 1.0000000000000000e-03
ITEM: ATOMS id x y z vx vy vz
1 -8.41283e-06 -8.34077e-06 -2.82207e-05 46.2606 -82.1116 -37.6306
2 -8.07278e-06 6.46655e-06 1.52792e-05 -30.7844 34.9729 -67.5178
3 -2.22496e-05 1.8959e-06 4.08568e-05 -30.2242 47.3272 -87.754
ITEM: TIMESTEP
400
ITEM: NUMBER OF ATOMS
3
ITEM: BOX BOUNDS mm mm mm
-1.0000000000000000e-03 1.0000000000000000e-03
-1.0000000000000000e-03 1.0000000000000000e-03
-1.0000000000000000e-03 1.0000000000000000e-03
ITEM: ATOMS id x y z vx vy vz
1 -5.58174e-06 2.16874e-05 -2.37868e-05 -50.6197 -7.79037 42.3131
2 8.02611e-07 -1.22687e-05 -4.62737e-05 -28.0852 15.3308 -19.7684
3 1.52095e-05 -1.00256e-05 -3.78972e-05 -74.6455 -5.57993 -26.6583
ITEM: TIMESTEP
410
ITEM: NUMBER OF ATOMS
3
ITEM: BOX BOUNDS mm mm mm
-1.0000000000000000e-03 1.0000000000000000e-03
-1.0000000000000000e-03 1.0000000000000000e-03
-1.0000000000000000e-03 1.0000000000000000e-03
ITEM: ATOMS id x y z vx vy vz
1 1.24244e-05 -4.09265e-06 2.98674e-05 -11.1888 86.9707 33.6996
2 8.81059e-06 -4.78039e-07 -2.62243e-05 16.3924 -59.9762 66.1974
3 9.0298e-06 3.71023e-06 9.55247e-06 67.528 -27.9244 71.5008
ITEM: TIMESTEP
420
ITEM: NUMBER OF ATOMS
3
ITEM: BOX BOUNDS mm mm mm
-1.0000000000000000e-03 1.0000000000000000e-03
-1.0000000000000000e-03 1.0000000000000000e-03
-1.0000000000000000e-03 1.0000000000000000e-03
ITEM: ATOMS id x y z vx vy vz
1 -2.74179e-06 -1.83568e-05 1.63669e-05 55.6165 -53.5087 -61.2698
2 -3.79208e-06 1.59502e-05 2.37378e-05 41.421 30.4562 -7.97052
3 -1.5762e-05 2.21818e-06 3.96306e-05 14.8858 21.6216 -2.01097
ITEM: TIMESTEP
430
ITEM: NUMBER OF ATOMS
3
ITEM: BOX BOUNDS mm mm mm
-1.0000000000000000e-03 1.0000000000000000e-03
-1.0000000000000000e-03 1.0000000000000000e-03
-1.0000000000000000e-03 1.0000000000000000e-03
ITEM: ATOMS id x y z vx vy vz
1 -1.17989e-05 1.61486e-05 -4.13414e-05 -22.3856 -58.3663 -21.0222
2 -9.40637e-06 -1.23543e-05 -1.68708e-05 -29.2205 51.3414 -47.6693
3 1.11051e-06 -4.011e-06 2.36376e-06 -58.063 8.42691 -50.8793
ITEM: TIMESTEP
440
ITEM: NUMBER OF ATOMS
3
ITEM: BOX BOUNDS mm mm mm
-1.0000000000000000e-03 1.0000000000000000e-03
-1.0000000000000000e-03 1.0000000000000000e-03
-1.0000000000000000e-03 1.0000000000000000e-03
ITEM: ATOMS id x y z vx vy vz
1 1.04929e-05 4.03664e-06 -1.40288e-05 -8.6758 75.7139 48.2284
2 9.76154e-06 -4.99838e-06 -3.00431e-05 -30.0934 -61.4215 8.75729
3 6.79576e-06 1.42386e-07 -1.10546e-05 -21.05 -13.5276 57.8884
ITEM: TIMESTEP
450
ITEM: NUMBER OF ATOMS
3
ITEM: BOX BOUNDS mm mm mm
-1.0000000000000000e-03 1.0000000000000000e-03
-1.0000000000000000e-03 1.0000000000000000e-03
-1.0000000000000000e-03 1.0000000000000000e-03
ITEM: ATOMS id x y z vx vy vz
1 -3.60049e-06 -2.11207e-05 1.97897e-05 37.9603 -13.9183 7.41189
2 4.18015e-06 1.48783e-05 -4.12769e-07 46.5728 -1.7172 36.5713
3 6.24072e-06 5.68163e-06 4.43873e-05 38.7289 14.0597 10.9662
ITEM: TIMESTEP
460
ITEM: NUMBER OF ATOMS
3
ITEM: BOX BOUNDS mm mm mm
-1.0000000000000000e-03 1.0000000000000000e-03
-1.0000000000000000e-03 1.0000000000000000e-03
-1.0000000000000000e-03 1.0000000000000000e-03
ITEM: ATOMS id x y z vx vy vz
1 -7.1375e-06 1.18111e-05 1.10997e-05 -13.7666 -80.7126 -24.2425
2 -1.04648e-05 -6.7961e-06 -7.32983e-06 3.34053 63.7212 -43.8234
3 -1.08096e-05 -5.12525e-06 7.42708e-06 17.4134 16.902 -56.9345
ITEM: TIMESTEP
470
ITEM: NUMBER OF ATOMS
3
ITEM: BOX BOUNDS mm mm mm
-1.0000000000000000e-03 1.0000000000000000e-03
-1.0000000000000000e-03 1.0000000000000000e-03
-1.0000000000000000e-03 1.0000000000000000e-03
ITEM: ATOMS id x y z vx vy vz
1 3.93033e-06 1.14663e-05 4.07065e-06 -23.0169 62.8558 -6.63315
2 4.11552e-09 -8.27049e-06 -4.55606e-05 -41.5266 -49.877 -16.6591
3 -2.57486e-07 -3.71633e-06 -2.88807e-05 -50.7132 -11.5053 29.5816
ITEM: TIMESTEP
480
ITEM: NUMBER OF ATOMS
3
ITEM: BOX BOUNDS mm mm mm
-1.0000000000000000e-03 1.0000000000000000e-03
-1.0000000000000000e-03 1.0000000000000000e-03
-1.0000000000000000e-03 1.0000000000000000e-03
ITEM: ATOMS id x y z vx vy vz
1 2.24891e-05 -2.58374e-05 4.53306e-05 -4.16966 32.0634 83.9537
2 9.98261e-06 1.28638e-05 -1.07528e-05 15.4749 -19.6949 68.8828
3 -9.02375e-06 1.22003e-05 -2.31015e-05 26.8569 -12.8565 -45.6828
ITEM: TIMESTEP
490
ITEM: NUMBER OF ATOMS
3
ITEM: BOX BOUNDS mm mm mm
-1.0000000000000000e-03 1.0000000000000000e-03
-1.0000000000000000e-03 1.0000000000000000e-03
-1.0000000000000000e-03 1.0000000000000000e-03
ITEM: ATOMS id x y z vx vy vz
1 -4.19568e-06 -7.68522e-07 3.49228e-05 162.398 -158.108 -165.887
2 -5.79951e-06 4.1828e-07 3.65868e-05 -32.0742 104.358 69.2295
3 -3.49942e-06 4.92339e-08 -2.40701e-05 -39.8256 52.5931 44.3221
ITEM: TIMESTEP
500
ITEM: NUMBER OF ATOMS
3
ITEM: BOX BOUNDS mm mm mm
-1.0000000000000000e-03 1.0000000000000000e-03
-1.0000000000000000e-03 1.0000000000000000e-03
-1.0000000000000000e-03 1.0000000000000000e-03
ITEM: ATOMS id x y z vx vy vz
1 -4.96193e-05 4.53541e-05 -0.000130126 -60.5136 37.3408 -0.0241713
2 2.3232e-05 -3.40657e-05 6.56127e-05 -3.3679 -27.429 -96.3238
3 9.11587e-06 -1.15411e-05 2.42831e-05 -5.94045 -9.01909 24.9982
ITEM: TIMESTEP
510
ITEM: NUMBER OF ATOMS
3
ITEM: BOX BOUNDS mm mm mm
-1.0000000000000000e-03 1.0000000000000000e-03
-1.0000000000000000e-03 1.0000000000000000e-03
-1.0000000000000000e-03 1.0000000000000000e-03
ITEM: ATOMS id x y z vx vy vz
1 2.30079e-05 -1.75489e-05 2.21183e-05 -189.602 177.788 210.936
2 -4.71132e-06 1.291e-05 -6.72039e-05 91.1641 -116.915 -93.1583
3 -3.74375e-07 3.93627e-06 1.15314e-05 42.7834 -60.161 -40.5984
ITEM: TIMESTEP
520
ITEM: NUMBER OF ATOMS
3
ITEM: BOX BOUNDS mm mm mm
-1.0000000000000000e-03 1.0000000000000000e-03
-1.0000000000000000e-03 1.0000000000000000e-03
-1.0000000000000000e-03 1.0000000000000000e-03
ITEM: ATOMS id x y z vx vy vz
1 3.57789e-05 -3.47416e-05 0.000102655 129.704 -104.057 -90.87
2 -1.88217e-05 2.22735e-05 -3.78973e-05 -36.9075 76.3183 126.041
3 -9.18727e-06 1.18953e-05 -2.41484e-05 -7.53026 26.6482 -6.1528
ITEM: TIMESTEP
530
ITEM: NUMBER OF ATOMS
3
ITEM: BOX BOUNDS mm mm mm
-1.0000000000000000e-03 1.0000000000000000e-03
-1.0000000000000000e-03 1.0000000000000000e-03
-1.0000000000000000e-03 1.0000000000000000e-03
ITEM: ATOMS id x y z vx vy vz
1 -4.22462e-05 3.32993e-05 -8.55776e-05 146.119 -135.098 -173.919
2 1.91795e-05 -2.60016e-05 9.04463e-05 -89.3089 85.8835 57.5079
3 2.62313e-06 -7.5098e-06 -2.52382e-06 -38.9419 48.9865 35.8791
ITEM: TIMESTEP
540
ITEM: NUMBER OF ATOMS
3
ITEM: BOX BOUNDS mm mm mm
-1.0000000000000000e-03 1.0000000000000000e-03
-1.0000000000000000e-03 1.0000000000000000e-03
-1.0000000000000000e-03 1.0000000000000000e-03
ITEM: ATOMS id x y z vx vy vz
1 -2.29934e-05 2.2063e-05 -7.44099e-05 -198.704 161.458 180.949
2 1.48106e-05 -1.27423e-05 1.29343e-05 105.091 -122.009 -156.988
3 7.91329e-06 -9.79078e-06 1.53296e-05 8.84626 -38.3656 -14.2971
ITEM: TIMESTEP
550
ITEM: NUMBER OF ATOMS
3
ITEM: BOX BOUNDS mm mm mm
-1.0000000000000000e-03 1.0000000000000000e-03
-1.0000000000000000e-03 1.0000000000000000e-03
-1.0000000000000000e-03 1.0000000000000000e-03
ITEM: ATOMS id x y z vx vy vz
1 4.70772e-05 -3.92734e-05 0.000104828 -54.87 59.2736 76.308
2 -2.83961e-05 2.97906e-05 -8.74069e-05 37.5926 -26.4346 15.304
3 -9.84161e-07 8.78301e-06 -8.74385e-06 33.7202 -33.0492 -25.0288
ITEM: TIMESTEP
560
ITEM: NUMBER OF ATOMS
3
ITEM: BOX BOUNDS mm mm mm
-1.0000000000000000e-03 1.0000000000000000e-03
-1.0000000000000000e-03 1.0000000000000000e-03
-1.0000000000000000e-03 1.0000000000000000e-03
ITEM: ATOMS id x y z vx vy vz
1 1.94436e-06 -4.84869e-06 1.81939e-05 217.103 -185.081 -201.972
2 -1.62152e-06 -1.23215e-06 2.08385e-05 -134.881 140.136 148.075
3 -7.99115e-06 5.70535e-06 -1.16689e-05 -11.1725 44.0364 16.3168
ITEM: TIMESTEP
570
ITEM: NUMBER OF ATOMS
3
ITEM: BOX BOUNDS mm mm mm
-1.0000000000000000e-03 1.0000000000000000e-03
-1.0000000000000000e-03 1.0000000000000000e-03
-1.0000000000000000e-03 1.0000000000000000e-03
ITEM: ATOMS id x y z vx vy vz
1 -5.05495e-05 4.39325e-05 -0.000113296 -35.256 18.8096 20.3804
2 3.23061e-05 -3.32625e-05 7.68416e-05 22.3391 -33.5746 -75.1918
3 3.97174e-06 -1.0961e-05 7.45474e-06 -29.5557 15.3079 12.6867
ITEM: TIMESTEP
580
ITEM: NUMBER OF ATOMS
3
ITEM: BOX BOUNDS mm mm mm
-1.0000000000000000e-03 1.0000000000000000e-03
-1.0000000000000000e-03 1.0000000000000000e-03
-1.0000000000000000e-03 1.0000000000000000e-03
ITEM: ATOMS id x y z vx vy vz
1 1.78607e-05 -1.33636e-05 2.92106e-05 -198.043 175.361 178.743
2 -1.34847e-05 1.50272e-05 -4.91875e-05 131.133 -129.924 -105.478
3 7.06656e-06 -2.28337e-06 -8.31764e-07 18.4456 -44.8178 -21.824
ITEM: TIMESTEP
590
ITEM: NUMBER OF ATOMS
3
ITEM: BOX BOUNDS mm mm mm
-1.0000000000000000e-03 1.0000000000000000e-03
-1.0000000000000000e-03 1.0000000000000000e-03
-1.0000000000000000e-03 1.0000000000000000e-03
ITEM: ATOMS id x y z vx vy vz
1 3.86965e-05 -3.51086e-05 8.4885e-05 110.394 -86.5973 -94.3157
2 -2.55101e-05 2.45773e-05 -4.75388e-05 -79.1294 86.2987 102.395
3 -5.65167e-06 9.96145e-06 -1.21778e-05 26.2485 -0.436725 6.48641
ITEM: TIMESTEP
600
ITEM: NUMBER OF ATOMS
3
ITEM: BOX BOUNDS mm mm mm
-1.0000000000000000e-03 1.0000000000000000e-03
-1.0000000000000000e-03 1.0000000000000000e-03
-1.0000000000000000e-03 1.0000000000000000e-03
ITEM: ATOMS id x y z vx vy vz
1 -3.52168e-05 2.91574e-05 -6.29761e-05 148.591 -137.649 -115.906
2 2.51022e-05 -2.69068e-05 6.01456e-05 -94.885 92.2924 53.7156
3 -4.32126e-06 -2.53959e-06 7.14039e-07 -31.6779 45.0747 10.5997
ITEM: TIMESTEP
610
ITEM: NUMBER OF ATOMS
3
ITEM: BOX BOUNDS mm mm mm
-1.0000000000000000e-03 1.0000000000000000e-03
-1.0000000000000000e-03 1.0000000000000000e-03
-1.0000000000000000e-03 1.0000000000000000e-03
ITEM: ATOMS id x y z vx vy vz
1 -2.49115e-05 2.34112e-05 -4.95589e-05 -170.709 145.247 128.636
2 1.47882e-05 -1.42866e-05 1.6147e-05 121.247 -126.421 -107.469
3 7.74673e-06 -9.56767e-06 2.79036e-06 -11.569 -18.0462 -11.4384
ITEM: TIMESTEP
620
ITEM: NUMBER OF ATOMS
3
ITEM: BOX BOUNDS mm mm mm
-1.0000000000000000e-03 1.0000000000000000e-03
-1.0000000000000000e-03 1.0000000000000000e-03
-1.0000000000000000e-03 1.0000000000000000e-03
ITEM: ATOMS id x y z vx vy vz
1 4.15608e-05 -3.61542e-05 7.41116e-05 -67.427 67.2451 49.4663
2 -2.98542e-05 3.03016e-05 -5.92793e-05 34.1389 -30.7436 -6.08755
3 1.31865e-06 5.21258e-06 -9.01359e-06 36.7597 -36.5459 -2.26964
ITEM: TIMESTEP
630
ITEM: NUMBER OF ATOMS
3
ITEM: BOX BOUNDS mm mm mm
-1.0000000000000000e-03 1.0000000000000000e-03
-1.0000000000000000e-03 1.0000000000000000e-03
-1.0000000000000000e-03 1.0000000000000000e-03
ITEM: ATOMS id x y z vx vy vz
1 5.61678e-06 -7.04204e-06 1.0845e-05 185.851 -162.63 -128.307
2 -6.82241e-07 -3.69067e-07 4.02627e-06 -124.221 127.63 91.7679
3 -8.87341e-06 6.98794e-06 9.18579e-08 -7.24094 34.3051 10.0294
ITEM: TIMESTEP
640
ITEM: NUMBER OF ATOMS
3
ITEM: BOX BOUNDS mm mm mm
-1.0000000000000000e-03 1.0000000000000000e-03
-1.0000000000000000e-03 1.0000000000000000e-03
-1.0000000000000000e-03 1.0000000000000000e-03
ITEM: ATOMS id x y z vx vy vz
1 -4.23069e-05 3.72616e-05 -6.76155e-05 -13.2835 4.47879 9.24902
2 2.70112e-05 -2.78339e-05 5.02195e-05 24.6976 -27.3448 -29.2543
3 3.84875e-06 -9.75489e-06 -3.6736e-06 -35.6036 23.1753 -4.55824
ITEM: TIMESTEP
650
ITEM: NUMBER OF ATOMS
3
ITEM: BOX BOUNDS mm mm mm
-1.0000000000000000e-03 1.0000000000000000e-03
-1.0000000000000000e-03 1.0000000000000000e-03
-1.0000000000000000e-03 1.0000000000000000e-03
ITEM: ATOMS id x y z vx vy vz
1 1.1717e-05 -9.18181e-06 1.4251e-05 -167.788 149.973 107.539
2 -1.21273e-05 1.2233e-05 -2.21868e-05 103.135 -105.223 -74.2876
3 7.3557e-06 -3.61356e-06 -5.43422e-06 24.337 -44.2337 0.786422
ITEM: TIMESTEP
660
ITEM: NUMBER OF ATOMS
3
ITEM: BOX BOUNDS mm mm mm
-1.0000000000000000e-03 1.0000000000000000e-03
-1.0000000000000000e-03 1.0000000000000000e-03
-1.0000000000000000e-03 1.0000000000000000e-03
ITEM: ATOMS id x y z vx vy vz
1 3.34388e-05 -3.04734e-05 5.30834e-05 80.6174 -65.6749 -51.1841
2 -1.94297e-05 1.95609e-05 -3.93696e-05 -68.4063 70.3501 49.3236
3 -7.31572e-06 1.03534e-05 1.23303e-06 25.4585 -5.15684 8.58902
ITEM: TIMESTEP
670
ITEM: NUMBER OF ATOMS
3
ITEM: BOX BOUNDS mm mm mm
-1.0000000000000000e-03 1.0000000000000000e-03
-1.0000000000000000e-03 1.0000000000000000e-03
-1.0000000000000000e-03 1.0000000000000000e-03
ITEM: ATOMS id x y z vx vy vz
1 -2.52386e-05 2.10111e-05 -3.23236e-05 121.962 -111.157 -71.4455
2 1.94383e-05 -1.14116e-05 -6.91088e-05 -62.3618 55.3991 -142.365
3 -4.20388e-06 -9.9452e-06 9.72406e-05 -37.3433 55.4738 180.945
ITEM: TIMESTEP
680
ITEM: NUMBER OF ATOMS
3
ITEM: BOX BOUNDS mm mm mm
-1.0000000000000000e-03 1.0000000000000000e-03
-1.0000000000000000e-03 1.0000000000000000e-03
-1.0000000000000000e-03 1.0000000000000000e-03
ITEM: ATOMS id x y z vx vy vz
1 -2.10813e-05 1.932e-05 -3.08573e-05 -125.17 107.442 70.3505
2 9.07948e-06 -9.66816e-06 -6.23279e-05 91.7376 -56.6949 144.591
3 8.68078e-06 -1.00829e-05 7.24569e-05 -9.56753 -50.1974 -206.501
ITEM: TIMESTEP
690
ITEM: NUMBER OF ATOMS
3
ITEM: BOX BOUNDS mm mm mm
-1.0000000000000000e-03 1.0000000000000000e-03