ITEM: TIMESTEP
0
ITEM: NUMBER OF ATOMS
3
ITEM: BOX BOUNDS mm mm mm
-1.0000000000000000e-03 1.0000000000000000e-03
-1.0000000000000000e-03 1.0000000000000000e-03
-1.0000000000000000e-03 1.0000000000000000e-03
ITEM: ATOMS id x y z vx vy vz
1 -0.000232651 -0.000233913 6.72716e-06 0 0 0
2 -0.000262184 0.000239883 0.000920694 0 0 0
3 0.000207657 0.000332205 0.000326303 0 0 0
ITEM: TIMESTEP
10
ITEM: NUMBER OF ATOMS
3
ITEM: BOX BOUNDS mm mm mm
-1.0000000000000000e-03 1.0000000000000000e-03
-1.0000000000000000e-03 1.0000000000000000e-03
-1.0000000000000000e-03 1.0000000000000000e-03
ITEM: ATOMS id x y z vx vy vz
1 4.70415e-05 4.73046e-05 -2.88355e-06 -947.99 -953.095 -13.2496
2 5.30405e-05 -4.88851e-05 -0.00017258 -1068.39 978.749 -1512.3
3 -4.23506e-05 -6.76278e-05 -6.22054e-05 847.303 1355.18 -537.385
ITEM: TIMESTEP
20
ITEM: NUMBER OF ATOMS
3
ITEM: BOX BOUNDS mm mm mm
-1.0000000000000000e-03 1.0000000000000000e-03
-1.0000000000000000e-03 1.0000000000000000e-03
-1.0000000000000000e-03 1.0000000000000000e-03
ITEM: ATOMS id x y z vx vy vz
1 0.000193901 0.000194943 -7.74451e-06 367.37 369.401 5.85795
2 0.000218544 -0.000200509 -0.000737304 414.042 -379.273 659.674
3 -0.000173596 -0.000277566 -0.000262836 -328.417 -525.177 234.414
ITEM: TIMESTEP
30
ITEM: NUMBER OF ATOMS
3
ITEM: BOX BOUNDS mm mm mm
-1.0000000000000000e-03 1.0000000000000000e-03
-1.0000000000000000e-03 1.0000000000000000e-03
-1.0000000000000000e-03 1.0000000000000000e-03
ITEM: ATOMS id x y z vx vy vz
1 -0.00011826 -0.00011892 2.86232e-06 723.66 727.523 9.04793
2 -0.000133273 0.00012178 0.000470565 815.568 -747.162 1041.53
3 0.000105434 0.000168683 0.000166367 -646.755 -1034.49 370.063
ITEM: TIMESTEP
40
ITEM: NUMBER OF ATOMS
3
ITEM: BOX BOUNDS mm mm mm
-1.0000000000000000e-03 1.0000000000000000e-03
-1.0000000000000000e-03 1.0000000000000000e-03
-1.0000000000000000e-03 1.0000000000000000e-03
ITEM: ATOMS id x y z vx vy vz
1 -0.000131708 -0.000132402 2.4052e-06 -615.17 -618.584 -9.24897
2 -0.000148415 0.000135673 0.000439553 -693.35 635.12 -1034.79
3 0.000117405 0.0001879 0.000155294 549.959 879.426 -367.746
ITEM: TIMESTEP
50
ITEM: NUMBER OF ATOMS
3
ITEM: BOX BOUNDS mm mm mm
-1.0000000000000000e-03 1.0000000000000000e-03
-1.0000000000000000e-03 1.0000000000000000e-03
-1.0000000000000000e-03 1.0000000000000000e-03
ITEM: ATOMS id x y z vx vy vz
1 0.000158528 0.000159398 -6.68239e-06 -422.991 -425.107 -3.72453
2 0.000178698 -0.000163994 -0.000608905 -476.676 436.771 -463.91
3 -0.000142006 -0.000227004 -0.000217226 377.865 604.654 -164.719
ITEM: TIMESTEP
60
ITEM: NUMBER OF ATOMS
3
ITEM: BOX BOUNDS mm mm mm
-1.0000000000000000e-03 1.0000000000000000e-03
-1.0000000000000000e-03 1.0000000000000000e-03
-1.0000000000000000e-03 1.0000000000000000e-03
ITEM: ATOMS id x y z vx vy vz
1 5.86193e-05 5.8891e-05 -2.19696e-06 725.158 729.101 9.86939
2 6.60766e-05 -6.08582e-05 -0.000123763 817.374 -748.771 1112.36
3 -5.26316e-05 -8.41702e-05 -4.47861e-05 -648.196 -1036.66 395.238
ITEM: TIMESTEP
70
ITEM: NUMBER OF ATOMS
3
ITEM: BOX BOUNDS mm mm mm
-1.0000000000000000e-03 1.0000000000000000e-03
-1.0000000000000000e-03 1.0000000000000000e-03
-1.0000000000000000e-03 1.0000000000000000e-03
ITEM: ATOMS id x y z vx vy vz
1 -0.000167769 -0.000168681 3.78098e-06 105.922 106.244 -1.18591
2 -0.000189088 0.000172921 0.000586193 119.292 -109.423 -77.8924
3 0.000149668 0.000239458 0.000207406 -94.361 -151.376 -27.7951
ITEM: TIMESTEP
80
ITEM: NUMBER OF ATOMS
3
ITEM: BOX BOUNDS mm mm mm
-1.0000000000000000e-03 1.0000000000000000e-03
-1.0000000000000000e-03 1.0000000000000000e-03
-1.0000000000000000e-03 1.0000000000000000e-03
ITEM: ATOMS id x y z vx vy vz
1 1.09635e-05 1.10961e-05 -2.97437e-06 -703.047 -706.738 -7.9515
2 1.24104e-05 -1.16307e-05 -0.000150286 -792.47 726.015 -944.073
3 -1.01831e-05 -1.60654e-05 -5.43386e-05 628.287 1005.04 -335.458
ITEM: TIMESTEP
90
ITEM: NUMBER OF ATOMS
3
ITEM: BOX BOUNDS mm mm mm
-1.0000000000000000e-03 1.0000000000000000e-03
-1.0000000000000000e-03 1.0000000000000000e-03
-1.0000000000000000e-03 1.0000000000000000e-03
ITEM: ATOMS id x y z vx vy vz
1 0.000148573 0.000149336 -4.92839e-06 175.054 176.308 4.6871
2 0.000167498 -0.000153759 -0.000453035 197.471 -180.726 480.724
3 -0.00013305 -0.00021277 -0.000161835 -156.86 -250.312 170.936
ITEM: TIMESTEP
100
ITEM: NUMBER OF ATOMS
3
ITEM: BOX BOUNDS mm mm mm
-1.0000000000000000e-03 1.0000000000000000e-03
-1.0000000000000000e-03 1.0000000000000000e-03
-1.0000000000000000e-03 1.0000000000000000e-03
ITEM: ATOMS id x y z vx vy vz
1 -6.7798e-05 -6.82479e-05 1.93874e-06 574.2 577.06 4.8683
2 -7.64638e-05 6.97056e-05 0.000326683 647.313 -593.129 620.17
3 6.04101e-05 9.65626e-05 0.000115216 -512.951 -820.838 220.226
ITEM: TIMESTEP
110
ITEM: NUMBER OF ATOMS
3
ITEM: BOX BOUNDS mm mm mm
-1.0000000000000000e-03 1.0000000000000000e-03
-1.0000000000000000e-03 1.0000000000000000e-03
-1.0000000000000000e-03 1.0000000000000000e-03
ITEM: ATOMS id x y z vx vy vz
1 -0.000109803 -0.000110323 3.87848e-07 -381.818 -384.209 -6.77665
2 -0.000123755 0.000113112 0.000252477 -430.652 394.335 -693.204
3 9.77622e-05 0.000156583 8.87749e-05 341.702 545.915 -246.302
ITEM: TIMESTEP
120
ITEM: NUMBER OF ATOMS
3
ITEM: BOX BOUNDS mm mm mm
-1.0000000000000000e-03 1.0000000000000000e-03
-1.0000000000000000e-03 1.0000000000000000e-03
-1.0000000000000000e-03 1.0000000000000000e-03
ITEM: ATOMS id x y z vx vy vz
1 0.000104004 0.00010463 -4.74744e-06 -376.725 -378.259 -0.612231
2 0.000117312 -0.000107727 -0.00040073 -424.498 389.116 -242.859
3 -9.33425e-05 -0.000149076 -0.000143396 336.136 538.471 -86.3463
ITEM: TIMESTEP
130
ITEM: NUMBER OF ATOMS
3
ITEM: BOX BOUNDS mm mm mm
-1.0000000000000000e-03 1.0000000000000000e-03
-1.0000000000000000e-03 1.0000000000000000e-03
-1.0000000000000000e-03 1.0000000000000000e-03
ITEM: ATOMS id x y z vx vy vz
1 5.97099e-05 5.99052e-05 -8.49336e-07 494.425 497.347 6.65363
2 6.72644e-05 -6.19876e-05 -5.03893e-05 557.445 -510.525 715.27
3 -5.3506e-05 -8.57133e-05 -1.87985e-05 -442.25 -706.865 254.121
ITEM: TIMESTEP
140
ITEM: NUMBER OF ATOMS
3
ITEM: BOX BOUNDS mm mm mm
-1.0000000000000000e-03 1.0000000000000000e-03
-1.0000000000000000e-03 1.0000000000000000e-03
-1.0000000000000000e-03 1.0000000000000000e-03
ITEM: ATOMS id x y z vx vy vz
1 -0.000118441 -0.000119128 1.83691e-06 152.907 153.06 -2.68794
2 -0.000133513 0.00012199 0.000370984 172.026 -157.947 -98.6458
3 0.000105627 0.00016895 0.000130927 -135.838 -218.459 -35.0334
ITEM: TIMESTEP
150
ITEM: NUMBER OF ATOMS
3
ITEM: BOX BOUNDS mm mm mm
-1.0000000000000000e-03 1.0000000000000000e-03
-1.0000000000000000e-03 1.0000000000000000e-03
-1.0000000000000000e-03 1.0000000000000000e-03
ITEM: ATOMS id x y z vx vy vz
1 -9.08274e-06 -8.93433e-06 -3.44937e-06 -510.7 -513.431 -4.23421
2 -1.01143e-05 9.06391e-06 -0.000120688 -575.494 527.199 -586.102
3 7.58464e-06 1.25664e-05 -4.37449e-05 456.443 730.054 -208.242
ITEM: TIMESTEP
160
ITEM: NUMBER OF ATOMS
3
ITEM: BOX BOUNDS mm mm mm
-1.0000000000000000e-03 1.0000000000000000e-03
-1.0000000000000000e-03 1.0000000000000000e-03
-1.0000000000000000e-03 1.0000000000000000e-03
ITEM: ATOMS id x y z vx vy vz
1 0.000111356 0.000111927 -2.83903e-06 57.8836 59.0767 4.60918
2 0.000125464 -0.000115244 -0.000276894 65.6492 -59.6723 342.423
3 -9.97894e-05 -0.000159555 -9.92505e-05 -52.8277 -82.9167 121.688
ITEM: TIMESTEP
170
ITEM: NUMBER OF ATOMS
3
ITEM: BOX BOUNDS mm mm mm
-1.0000000000000000e-03 1.0000000000000000e-03
-1.0000000000000000e-03 1.0000000000000000e-03
-1.0000000000000000e-03 1.0000000000000000e-03
ITEM: ATOMS id x y z vx vy vz
1 -3.51585e-05 -3.55941e-05 1.64299e-06 444.309 446.511 1.49953
2 -3.96995e-05 3.59434e-05 0.000223421 500.278 -458.389 365.871
3 3.14292e-05 4.99262e-05 7.86642e-05 -396.857 -635.065 130.003
ITEM: TIMESTEP
180
ITEM: NUMBER OF ATOMS
3
ITEM: BOX BOUNDS mm mm mm
-1.0000000000000000e-03 1.0000000000000000e-03
-1.0000000000000000e-03 1.0000000000000000e-03
-1.0000000000000000e-03 1.0000000000000000e-03
ITEM: ATOMS id x y z vx vy vz
1 -8.85084e-05 -8.88919e-05 -1.37781e-06 -224.822 -227.094 -5.60553
2 -9.96031e-05 9.0995e-05 0.000142702 -253.665 231.808 -460.004
3 7.8691e-05 0.000126117 4.97912e-05 202.245 321.565 -163.749
ITEM: TIMESTEP
190
ITEM: NUMBER OF ATOMS
3
ITEM: BOX BOUNDS mm mm mm
-1.0000000000000000e-03 1.0000000000000000e-03
-1.0000000000000000e-03 1.0000000000000000e-03
-1.0000000000000000e-03 1.0000000000000000e-03
ITEM: ATOMS id x y z vx vy vz
1 6.60211e-05 6.66151e-05 -3.91876e-06 -318.883 -319.74 1.86517
2 7.44443e-05 -6.83613e-05 -0.000262056 -358.469 328.784 -121.499
3 -5.95965e-05 -9.47906e-05 -9.39636e-05 283.951 455.616 -42.7504
ITEM: TIMESTEP
200
ITEM: NUMBER OF ATOMS
3
ITEM: BOX BOUNDS mm mm mm
-1.0000000000000000e-03 1.0000000000000000e-03
-1.0000000000000000e-03 1.0000000000000000e-03
-1.0000000000000000e-03 1.0000000000000000e-03
ITEM: ATOMS id x y z vx vy vz
1 5.49532e-05 5.50076e-05 3.41949e-07 328.954 331.81 4.46877
2 6.17481e-05 -5.69822e-05 -1.47735e-05 370.75 -338.931 456.867
3 -4.91125e-05 -7.88768e-05 -5.79221e-06 -295.419 -470.394 162.931
ITEM: TIMESTEP
210
ITEM: NUMBER OF ATOMS
3
ITEM: BOX BOUNDS mm mm mm
-1.0000000000000000e-03 1.0000000000000000e-03
-1.0000000000000000e-03 1.0000000000000000e-03
-1.0000000000000000e-03 1.0000000000000000e-03
ITEM: ATOMS id x y z vx vy vz
1 -8.19498e-05 -8.26084e-05 4.05953e-07 163.974 163.474 -4.23596
2 -9.23175e-05 8.41351e-05 0.000233277 183.857 -169.135 -92.1402
3 7.32262e-05 0.000116797 8.21932e-05 -144.84 -234.098 -33.5393
ITEM: TIMESTEP
220
ITEM: NUMBER OF ATOMS
3
ITEM: BOX BOUNDS mm mm mm
-1.0000000000000000e-03 1.0000000000000000e-03
-1.0000000000000000e-03 1.0000000000000000e-03
-1.0000000000000000e-03 1.0000000000000000e-03
ITEM: ATOMS id x y z vx vy vz
1 -1.88003e-05 -1.84609e-05 -4.05615e-06 -363.78 -366.129 -1.39583
2 -2.09105e-05 1.90821e-05 -9.16537e-05 -409.477 374.814 -362.394
3 1.59658e-05 2.6405e-05 -3.39046e-05 325.636 520.016 -128.321
ITEM: TIMESTEP
230
ITEM: NUMBER OF ATOMS
3
ITEM: BOX BOUNDS mm mm mm
-1.0000000000000000e-03 1.0000000000000000e-03
-1.0000000000000000e-03 1.0000000000000000e-03
-1.0000000000000000e-03 1.0000000000000000e-03
ITEM: ATOMS id x y z vx vy vz
1 8.17655e-05 8.22282e-05 -1.26439e-06 -8.78516 -6.79093 5.12347
2 9.20135e-05 -8.45479e-05 -0.000168858 -8.87717 9.24868 238.579
3 -7.34121e-05 -0.000117247 -6.03991e-05 5.29172 12.1536 85.4782
ITEM: TIMESTEP
240
ITEM: NUMBER OF ATOMS
3
ITEM: BOX BOUNDS mm mm mm
-1.0000000000000000e-03 1.0000000000000000e-03
-1.0000000000000000e-03 1.0000000000000000e-03
-1.0000000000000000e-03 1.0000000000000000e-03
ITEM: ATOMS id x y z vx vy vz
1 -1.48655e-05 -1.55104e-05 1.68475e-06 335.563 337.21 -1.41426
2 -1.70129e-05 1.49807e-05 0.000150292 377.68 -346.026 214.761
3 1.36976e-05 2.09837e-05 5.32568e-05 -299.718 -479.612 75.5315
ITEM: TIMESTEP
250
ITEM: NUMBER OF ATOMS
3
ITEM: BOX BOUNDS mm mm mm
-1.0000000000000000e-03 1.0000000000000000e-03
-1.0000000000000000e-03 1.0000000000000000e-03
-1.0000000000000000e-03 1.0000000000000000e-03
ITEM: ATOMS id x y z vx vy vz
1 -6.9242e-05 -6.94635e-05 -3.0544e-06 -122.09 -125.239 -5.20923
2 -7.78612e-05 7.10997e-05 7.98176e-05 -138.701 125.647 -301.904
3 6.14045e-05 9.85656e-05 2.68471e-05 112.275 175.01 -108.489
ITEM: TIMESTEP
260
ITEM: NUMBER OF ATOMS
3
ITEM: BOX BOUNDS mm mm mm
-1.0000000000000000e-03 1.0000000000000000e-03
-1.0000000000000000e-03 1.0000000000000000e-03
-1.0000000000000000e-03 1.0000000000000000e-03
ITEM: ATOMS id x y z vx vy vz
1 4.00261e-05 4.07929e-05 -3.09987e-06 -258.771 -258.376 4.83971
2 4.53795e-05 -4.15658e-05 -0.000170628 -290.481 267.05 -58.6095
3 -3.67596e-05 -5.77043e-05 -6.13901e-05 229.04 369.541 -18.6751
ITEM: TIMESTEP
270
ITEM: NUMBER OF ATOMS
3
ITEM: BOX BOUNDS mm mm mm
-1.0000000000000000e-03 1.0000000000000000e-03
-1.0000000000000000e-03 1.0000000000000000e-03
-1.0000000000000000e-03 1.0000000000000000e-03
ITEM: ATOMS id x y z vx vy vz
1 4.71827e-05 4.68962e-05 2.08156e-06 211.522 215.06 3.15733
2 5.29603e-05 -4.91426e-05 -2.36964e-07 239.845 -218.507 290.373
3 -4.17628e-05 -6.77284e-05 3.44463e-07 -191.998 -302.901 103.514
ITEM: TIMESTEP
280
ITEM: NUMBER OF ATOMS
3
ITEM: BOX BOUNDS mm mm mm
-1.0000000000000000e-03 1.0000000000000000e-03
-1.0000000000000000e-03 1.0000000000000000e-03
-1.0000000000000000e-03 1.0000000000000000e-03
ITEM: ATOMS id x y z vx vy vz
1 -5.51521e-05 -5.59111e-05 -8.81115e-07 153.785 151.57 -7.17136
2 -6.24603e-05 5.67054e-05 0.000146289 171.941 -159.271 -73.8939
3 4.95543e-05 7.85716e-05 5.09357e-05 -133.562 -219.271 -28.6731
ITEM: TIMESTEP
290
ITEM: NUMBER OF ATOMS
3
ITEM: BOX BOUNDS mm mm mm
-1.0000000000000000e-03 1.0000000000000000e-03
-1.0000000000000000e-03 1.0000000000000000e-03
-1.0000000000000000e-03 1.0000000000000000e-03
ITEM: ATOMS id x y z vx vy vz
1 -2.18513e-05 -2.0982e-05 -5.42688e-06 -251.269 -253.258 3.53779
2 -2.42438e-05 2.24421e-05 -6.61176e-05 -285.132 261.093 -226.326
3 1.80121e-05 3.06899e-05 -2.55624e-05 225.295 359.624 -78.3608
ITEM: TIMESTEP
300
ITEM: NUMBER OF ATOMS
3
ITEM: BOX BOUNDS mm mm mm
-1.0000000000000000e-03 1.0000000000000000e-03
-1.0000000000000000e-03 1.0000000000000000e-03
-1.0000000000000000e-03 1.0000000000000000e-03
ITEM: ATOMS id x y z vx vy vz
1 5.82142e-05 5.85182e-05 1.76809e-06 -41.863 -37.5797 6.62921
2 6.60201e-05 -6.08206e-05 -0.000104794 -45.1523 43.8257 162.222
3 -5.23094e-05 -8.36703e-05 -3.66014e-05 31.7723 59.0034 59.1761
ITEM: TIMESTEP
310
ITEM: NUMBER OF ATOMS
3
ITEM: BOX BOUNDS mm mm mm
-1.0000000000000000e-03 1.0000000000000000e-03
-1.0000000000000000e-03 1.0000000000000000e-03
-1.0000000000000000e-03 1.0000000000000000e-03
ITEM: ATOMS id x y z vx vy vz
1 -3.03216e-06 -4.238e-06 3.27875e-06 244.516 244.87 -6.85927
2 -4.0767e-06 2.82926e-06 9.87484e-05 277.991 -255.735 128.93
3 3.88112e-06 4.20133e-06 3.49222e-05 -217.072 -349.894 43.0975
ITEM: TIMESTEP
320
ITEM: NUMBER OF ATOMS
3
ITEM: BOX BOUNDS mm mm mm
-1.0000000000000000e-03 1.0000000000000000e-03
-1.0000000000000000e-03 1.0000000000000000e-03
-1.0000000000000000e-03 1.0000000000000000e-03
ITEM: ATOMS id x y z vx vy vz
1 -5.20526e-05 -5.18922e-05 -6.81762e-06 -57.1577 -62.6199 -7.29448
2 -5.90851e-05 5.41701e-05 4.62952e-05 -67.9285 59.5723 -195.239
3 4.56319e-05 7.40735e-05 1.40448e-05 57.4913 82.8862 -70.0955
ITEM: TIMESTEP
330
ITEM: NUMBER OF ATOMS
3
ITEM: BOX BOUNDS mm mm mm
-1.0000000000000000e-03 1.0000000000000000e-03
-1.0000000000000000e-03 1.0000000000000000e-03
-1.0000000000000000e-03 1.0000000000000000e-03
ITEM: ATOMS id x y z vx vy vz
1 2.193e-05 2.30984e-05 3.46576e-06 -193.907 -189.911 17.897
2 2.64821e-05 -2.40176e-05 -0.000112305 -226.26 209.821 -32.5031
3 -2.12242e-05 -3.22131e-05 -4.43643e-05 167.383 278.661 -11.5237
ITEM: TIMESTEP
340
ITEM: NUMBER OF ATOMS
3
ITEM: BOX BOUNDS mm mm mm
-1.0000000000000000e-03 1.0000000000000000e-03
-1.0000000000000000e-03 1.0000000000000000e-03
-1.0000000000000000e-03 1.0000000000000000e-03
ITEM: ATOMS id x y z vx vy vz
1 3.69512e-05 3.58265e-05 8.38351e-06 126.07 131.01 -8.34225
2 4.29129e-05 -4.03994e-05 1.14969e-06 151.382 -136.569 185.338
3 -3.163e-05 -5.34178e-05 9.12349e-07 -118.035 -182.733 74.1157
ITEM: TIMESTEP
350
ITEM: NUMBER OF ATOMS
3
ITEM: BOX BOUNDS mm mm mm
-1.0000000000000000e-03 1.0000000000000000e-03
-1.0000000000000000e-03 1.0000000000000000e-03
-1.0000000000000000e-03 1.0000000000000000e-03
ITEM: ATOMS id x y z vx vy vz
1 -3.47761e-05 -3.5744e-05 -8.651e-06 127.721 121.434 -15.7135
2 -4.15198e-05 3.73797e-05 9.33152e-05 146.715 -138.467 -48.9338
3 3.17534e-05 4.99552e-05 3.60528e-05 -105.215 -182.839 -22.0667
ITEM: TIMESTEP
360
ITEM: NUMBER OF ATOMS
3
ITEM: BOX BOUNDS mm mm mm
-1.0000000000000000e-03 1.0000000000000000e-03
-1.0000000000000000e-03 1.0000000000000000e-03
-1.0000000000000000e-03 1.0000000000000000e-03
ITEM: ATOMS id x y z vx vy vz
1 -2.29561e-05 -2.41179e-05 6.59838e-07 -186.91 -217.273 110.992
2 -2.2863e-05 2.1757e-05 -4.39805e-05 -195.593 178.508 -155.657
3 1.79132e-05 3.43017e-05 -2.80112e-05 171.535 287.947 -138.237
ITEM: TIMESTEP
370
ITEM: NUMBER OF ATOMS
3
ITEM: BOX BOUNDS mm mm mm
-1.0000000000000000e-03 1.0000000000000000e-03
-1.0000000000000000e-03 1.0000000000000000e-03
-1.0000000000000000e-03 1.0000000000000000e-03
ITEM: ATOMS id x y z vx vy vz
1 4.46199e-05 5.14462e-05 5.50759e-05 -58.3584 -57.1403 -30.6302
2 4.66869e-05 -4.28707e-05 -7.51913e-05 -54.923 56.6065 104.044
3 -4.09234e-05 -6.91048e-05 -6.42791e-05 40.29 86.7465 82.7179
ITEM: TIMESTEP
380
ITEM: NUMBER OF ATOMS
3
ITEM: BOX BOUNDS mm mm mm
-1.0000000000000000e-03 1.0000000000000000e-03
-1.0000000000000000e-03 1.0000000000000000e-03
-1.0000000000000000e-03 1.0000000000000000e-03
ITEM: ATOMS id x y z vx vy vz
1 3.3092e-06 1.33547e-06 -2.67582e-05 193.569 220.437 -85.6597
2 1.97641e-06 -3.42368e-06 1.13317e-05 236.298 -162.555 68.3448
3 -3.49966e-07 -4.76125e-06 0.000105588 -209.014 -318.74 109.923
ITEM: TIMESTEP
390
ITEM: NUMBER OF ATOMS
3
ITEM: BOX BOUNDS mm mm mm
-1.0000000000000000e-03 1.0000000000000000e-03
-1.0000000000000000e-03 1.0000000000000000e-03
-1.0000000000000000e-03 1.0000000000000000e-03
ITEM: ATOMS id x y z vx vy vz
1 -4.24362e-05 -4.78618e-05 -4.09989e-05 -21.6246 -35.3411 62.3834
2 -5.13811e-05 3.54496e-05 3.11806e-05 -35.6611 17.0188 -38.3974
3 4.48272e-05 6.92562e-05 3.52173e-05 38.5856 40.4098 -201.71
ITEM: TIMESTEP
400
ITEM: NUMBER OF ATOMS
3
ITEM: BOX BOUNDS mm mm mm
-1.0000000000000000e-03 1.0000000000000000e-03
-1.0000000000000000e-03 1.0000000000000000e-03
-1.0000000000000000e-03 1.0000000000000000e-03
ITEM: ATOMS id x y z vx vy vz
1 1.30825e-05 1.7652e-05 3.60773e-05 -168.547 -188.403 48.7462
2 1.79997e-05 -1.14472e-05 -2.4121e-05 -201.425 142.905 -41.7029
3 -1.77315e-05 -2.29937e-05 -0.000111739 175.527 275.163 -10.8333
ITEM: TIMESTEP
410
ITEM: NUMBER OF ATOMS
3
ITEM: BOX BOUNDS mm mm mm
-1.0000000000000000e-03 1.0000000000000000e-03
-1.0000000000000000e-03 1.0000000000000000e-03
-1.0000000000000000e-03 1.0000000000000000e-03
ITEM: ATOMS id x y z vx vy vz
1 3.33797e-05 3.66713e-05 1.7449e-05 85.2674 108.424 -71.6832
2 4.36606e-05 -2.63211e-05 -2.05516e-05 127.229 -65.0794 37.4792
3 -3.854e-05 -5.68441e-05 1.49399e-05 -120.274 -152.272 192.116
ITEM: TIMESTEP
420
ITEM: NUMBER OF ATOMS
3
ITEM: BOX BOUNDS mm mm mm
-1.0000000000000000e-03 1.0000000000000000e-03
-1.0000000000000000e-03 1.0000000000000000e-03
-1.0000000000000000e-03 1.0000000000000000e-03
ITEM: ATOMS id x y z vx vy vz
1 -2.53049e-05 -3.11851e-05 -4.30362e-05 121.642 127.795 -15.7434
2 -3.63861e-05 1.93365e-05 2.24594e-05 154.011 -92.6984 24.1439
3 3.35456e-05 4.40723e-05 9.37182e-05 -133.737 -202.718 -74.0454
ITEM: TIMESTEP
430
ITEM: NUMBER OF ATOMS
3
ITEM: BOX BOUNDS mm mm mm
-1.0000000000000000e-03 1.0000000000000000e-03
-1.0000000000000000e-03 1.0000000000000000e-03
-1.0000000000000000e-03 1.0000000000000000e-03
ITEM: ATOMS id x y z vx vy vz
1 -2.11702e-05 -2.10418e-05 -2.80244e-06 -125.275 -151.73 69.3515
2 -2.56198e-05 1.57313e-05 7.14401e-06 -176.498 97.8019 -39.9571
3 2.14356e-05 3.42378e-05 -5.61157e-05 162.715 218.174 -139.557
ITEM: TIMESTEP
440
ITEM: NUMBER OF ATOMS
3
ITEM: BOX BOUNDS mm mm mm
-1.0000000000000000e-03 1.0000000000000000e-03
-1.0000000000000000e-03 1.0000000000000000e-03
-1.0000000000000000e-03 1.0000000000000000e-03
ITEM: ATOMS id x y z vx vy vz
1 3.10085e-05 3.69269e-05 3.5136e-05 -62.7713 -55.1716 -13.0819
2 4.29889e-05 -2.45751e-05 -2.35559e-05 -70.3731 45.1704 -4.91065
3 -3.95731e-05 -5.40313e-05 -6.26889e-05 57.295 99.5896 123.828
ITEM: TIMESTEP
450
ITEM: NUMBER OF ATOMS
3
ITEM: BOX BOUNDS mm mm mm
-1.0000000000000000e-03 1.0000000000000000e-03
-1.0000000000000000e-03 1.0000000000000000e-03
-1.0000000000000000e-03 1.0000000000000000e-03
ITEM: ATOMS id x y z vx vy vz
1 7.15613e-06 3.30403e-06 -1.32614e-05 140.547 160.691 -59.7808
2 5.69427e-06 -4.25496e-06 -2.0565e-06 196.507 -101.393 39.2421
3 -4.07702e-06 -1.04314e-05 7.37449e-05 -180.76 -243.901 71.1645
ITEM: TIMESTEP
460
ITEM: NUMBER OF ATOMS
3
ITEM: BOX BOUNDS mm mm mm
-1.0000000000000000e-03 1.0000000000000000e-03
-1.0000000000000000e-03 1.0000000000000000e-03
-1.0000000000000000e-03 1.0000000000000000e-03
ITEM: ATOMS id x y z vx vy vz
1 -3.19284e-05 -3.60415e-05 -3.25642e-05 3.87619 -17.9509 33.5222
2 -4.35381e-05 2.30426e-05 2.06947e-05 -13.6167 3.70957 -9.50024
3 3.95662e-05 5.43821e-05 2.18654e-05 18.6003 3.77674 -139.187
ITEM: TIMESTEP
470
ITEM: NUMBER OF ATOMS
3
ITEM: BOX BOUNDS mm mm mm
-1.0000000000000000e-03 1.0000000000000000e-03
-1.0000000000000000e-03 1.0000000000000000e-03
-1.0000000000000000e-03 1.0000000000000000e-03
ITEM: ATOMS id x y z vx vy vz
1 5.50374e-06 1.18736e-05 2.03146e-05 -130.604 -141.754 43.2826
2 1.18448e-05 -6.26187e-06 -7.42398e-06 -173.004 93.3052 -32.2043
3 -1.25609e-05 -1.22863e-05 -7.80442e-05 157.466 221.063 -5.2838
ITEM: TIMESTEP
480
ITEM: NUMBER OF ATOMS
3
ITEM: BOX BOUNDS mm mm mm
-1.0000000000000000e-03 1.0000000000000000e-03
-1.0000000000000000e-03 1.0000000000000000e-03
-1.0000000000000000e-03 1.0000000000000000e-03
ITEM: ATOMS id x y z vx vy vz
1 2.68302e-05 2.77703e-05 1.89779e-05 47.503 77.2353 -43.353
2 3.51484e-05 -1.8163e-05 -1.81271e-05 85.8455 -40.3399 14.7874
3 -3.21218e-05 -4.5892e-05 9.40248e-06 -84.9597 -94.0491 127.288
ITEM: TIMESTEP
490
ITEM: NUMBER OF ATOMS
3
ITEM: BOX BOUNDS mm mm mm
-1.0000000000000000e-03 1.0000000000000000e-03
-1.0000000000000000e-03 1.0000000000000000e-03
-1.0000000000000000e-03 1.0000000000000000e-03
ITEM: ATOMS id x y z vx vy vz
1 -1.80434e-05 -2.87549e-05 -2.76726e-05 110.068 115.846 -24.5794
2 -2.37095e-05 1.83702e-05 8.68248e-06 118.224 -82.9433 24.3142
3 2.47673e-05 2.94271e-05 6.2377e-05 -113.543 -168.437 -47.9521
ITEM: TIMESTEP
500
ITEM: NUMBER OF ATOMS
3
ITEM: BOX BOUNDS mm mm mm
-1.0000000000000000e-03 1.0000000000000000e-03
-1.0000000000000000e-03 1.0000000000000000e-03
-1.0000000000000000e-03 1.0000000000000000e-03
ITEM: ATOMS id x y z vx vy vz
1 -2.01607e-05 -1.87331e-05 -1.08831e-05 -94.741 -140.091 46.9131
2 -2.03076e-05 1.36349e-05 1.00905e-05 -118.482 91.1084 -16.9767
3 1.86938e-05 2.9797e-05 -3.65917e-05 124.69 153.551 -95.6721
ITEM: TIMESTEP
510
ITEM: NUMBER OF ATOMS
3
ITEM: BOX BOUNDS mm mm mm
-1.0000000000000000e-03 1.0000000000000000e-03
-1.0000000000000000e-03 1.0000000000000000e-03
-1.0000000000000000e-03 1.0000000000000000e-03
ITEM: ATOMS id x y z vx vy vz
1 2.4448e-05 3.40223e-05 2.64677e-05 -64.2728 -45.8674 8.74374
2 2.93525e-05 -2.27031e-05 -1.31514e-05 -58.8105 36.1487 -17.6979
3 -3.09502e-05 -3.93281e-05 -4.45504e-05 52.515 93.0694 80.0611
ITEM: TIMESTEP
520
ITEM: NUMBER OF ATOMS
3
ITEM: BOX BOUNDS mm mm mm
-1.0000000000000000e-03 1.0000000000000000e-03
-1.0000000000000000e-03 1.0000000000000000e-03
-1.0000000000000000e-03 1.0000000000000000e-03
ITEM: ATOMS id x y z vx vy vz
1 8.5945e-06 1.90305e-06 1.95858e-07 114.6 148.857 -40.3023
2 5.70535e-06 -2.83075e-06 -9.03093e-06 132.566 -94.1107 14.2237
3 -4.32251e-06 -1.18767e-05 4.5929e-05 -139.05 -182.445 52.8137
ITEM: TIMESTEP
530
ITEM: NUMBER OF ATOMS
3
ITEM: BOX BOUNDS mm mm mm
-1.0000000000000000e-03 1.0000000000000000e-03
-1.0000000000000000e-03 1.0000000000000000e-03
-1.0000000000000000e-03 1.0000000000000000e-03
ITEM: ATOMS id x y z vx vy vz
1 -2.72309e-05 -3.34402e-05 -2.16029e-05 13.6977 -25.0517 -0.218221
2 -2.92833e-05 2.13315e-05 5.03529e-06 -1.64979 11.2393 14.2118
3 3.07175e-05 4.15582e-05 1.84079e-05 10.6085 -12.9479 -88.1893
ITEM: TIMESTEP
540
ITEM: NUMBER OF ATOMS
3
ITEM: BOX BOUNDS mm mm mm
-1.0000000000000000e-03 1.0000000000000000e-03
-1.0000000000000000e-03 1.0000000000000000e-03
-1.0000000000000000e-03 1.0000000000000000e-03
ITEM: ATOMS id x y z vx vy vz
1 2.89189e-06 1.32359e-05 -4.91699e-07 -115.318 -128.98 30.724
2 6.52096e-06 -7.45255e-06 9.23125e-06 -115.258 82.1995 -8.77498
3 -9.62932e-06 -6.54749e-06 -5.15745e-05 123.095 173.73 -13.0453
ITEM: TIMESTEP
550
ITEM: NUMBER OF ATOMS
3
ITEM: BOX BOUNDS mm mm mm
-1.0000000000000000e-03 1.0000000000000000e-03
-1.0000000000000000e-03 1.0000000000000000e-03
-1.0000000000000000e-03 1.0000000000000000e-03
ITEM: ATOMS id x y z vx vy vz
1 2.78093e-05 2.60979e-05 -2.57884e-06 48.0768 90.8055 -19.9607
2 1.9517e-05 -1.74217e-05 1.15553e-05 37.312 -54.7864 1.39421
3 -2.47616e-05 -3.63478e-05 -1.30164e-06 -64.5398 -60.6446 79.9107
ITEM: TIMESTEP
560
ITEM: NUMBER OF ATOMS
3
ITEM: BOX BOUNDS mm mm mm
-1.0000000000000000e-03 1.0000000000000000e-03
-1.0000000000000000e-03 1.0000000000000000e-03
-1.0000000000000000e-03 1.0000000000000000e-03
ITEM: ATOMS id x y z vx vy vz
1 -1.65786e-05 -2.57415e-05 -1.53064e-05 104.818 85.9401 1.47138
2 -1.2214e-05 1.53905e-05 -2.15456e-06 69.3198 -56.6412 -20.5093
3 1.91947e-05 2.06676e-05 4.23514e-05 -84.0491 -135.706 -15.5858
ITEM: TIMESTEP
570
ITEM: NUMBER OF ATOMS
3
ITEM: BOX BOUNDS mm mm mm
-1.0000000000000000e-03 1.0000000000000000e-03
-1.0000000000000000e-03 1.0000000000000000e-03
-1.0000000000000000e-03 1.0000000000000000e-03
ITEM: ATOMS id x y z vx vy vz
1 -2.10614e-05 -1.15249e-05 -1.13393e-05 -107.368 -120.46 0.812998
2 -9.31806e-06 5.80488e-06 -1.27441e-06 -44.7394 60.4986 24.6791
3 1.24087e-05 2.59261e-05 -1.44242e-05 98.2526 123.571 -64.3023
ITEM: TIMESTEP
580
ITEM: NUMBER OF ATOMS
3
ITEM: BOX BOUNDS mm mm mm
-1.0000000000000000e-03 1.0000000000000000e-03
-1.0000000000000000e-03 1.0000000000000000e-03
-1.0000000000000000e-03 1.0000000000000000e-03
ITEM: ATOMS id x y z vx vy vz
1 2.7965e-05 2.85627e-05 -1.48098e-06 -62.7393 -18.0052 12.2623
2 1.08886e-05 -1.44823e-05 1.6058e-05 -29.0263 9.2073 1.25285
3 -2.42194e-05 -3.23851e-05 -3.40683e-05 30.3141 81.3805 33.8789
ITEM: TIMESTEP
590
ITEM: NUMBER OF ATOMS
3
ITEM: BOX BOUNDS mm mm mm
-1.0000000000000000e-03 1.0000000000000000e-03
-1.0000000000000000e-03 1.0000000000000000e-03
-1.0000000000000000e-03 1.0000000000000000e-03
ITEM: ATOMS id x y z vx vy vz
1 6.59451e-06 -4.06003e-06 6.35631e-07 135.887 104.687 -13.5854
2 2.88143e-06 1.90066e-06 3.44846e-06 34.2944 -41.9269 -24.71
3 2.032e-07 -1.02928e-05 1.87839e-05 -97.2556 -148.896 51.7154
ITEM: TIMESTEP
600
ITEM: NUMBER OF ATOMS
3
ITEM: BOX BOUNDS mm mm mm
-1.0000000000000000e-03 1.0000000000000000e-03
-1.0000000000000000e-03 1.0000000000000000e-03
-1.0000000000000000e-03 1.0000000000000000e-03
ITEM: ATOMS id x y z vx vy vz
1 -3.54566e-05 -1.39951e-05 -1.46832e-05 -14.3369 -35.1504 -3.27725
2 -3.71809e-06 -1.17007e-07 -1.30642e-05 19.9213 12.6027 -1.54334
3 2.09957e-05 3.45642e-05 2.54775e-05 22.3467 -10.4426 -42.7105
ITEM: TIMESTEP
610
ITEM: NUMBER OF ATOMS
3
ITEM: BOX BOUNDS mm mm mm
-1.0000000000000000e-03 1.0000000000000000e-03
-1.0000000000000000e-03 1.0000000000000000e-03
-1.0000000000000000e-03 1.0000000000000000e-03
ITEM: ATOMS id x y z vx vy vz
1 1.36507e-05 8.32737e-06 -6.43856e-06 -134.694 -25.8019 16.8124
2 -6.15741e-06 5.4671e-07 -6.02116e-07 -22.6285 -25.9351 23.7337
3 -1.03814e-05 -6.48261e-06 -2.14914e-05 79.9361 143.141 -31.5831
ITEM: TIMESTEP
620
ITEM: NUMBER OF ATOMS
3
ITEM: BOX BOUNDS mm mm mm
-1.0000000000000000e-03 1.0000000000000000e-03
-1.0000000000000000e-03 1.0000000000000000e-03
-1.0000000000000000e-03 1.0000000000000000e-03
ITEM: ATOMS id x y z vx vy vz
1 2.37727e-05 1.64155e-06 1.54983e-06 88.1826 30.2154 -1.04552
2 7.81062e-06 7.30555e-06 2.33931e-05 -24.6719 20.6333 3.02211
3 -1.49423e-05 -2.96223e-05 -1.9902e-05 -59.1088 -56.048 35.8979
ITEM: TIMESTEP
630
ITEM: NUMBER OF ATOMS
3
ITEM: BOX BOUNDS mm mm mm
-1.0000000000000000e-03 1.0000000000000000e-03
-1.0000000000000000e-03 1.0000000000000000e-03
-1.0000000000000000e-03 1.0000000000000000e-03
ITEM: ATOMS id x y z vx vy vz
1 -1.85462e-05 -1.2262e-05 -1.76291e-05 49.6094 17.411 -28.7758
2 3.36339e-06 -7.37943e-06 4.99002e-06 44.3095 25.5345 -27.6675
3 1.03137e-05 2.43727e-05 2.61049e-05 -24.955 -124.401 32.0191
ITEM: TIMESTEP
640
ITEM: NUMBER OF ATOMS
3
ITEM: BOX BOUNDS mm mm mm
-1.0000000000000000e-03 1.0000000000000000e-03
-1.0000000000000000e-03 1.0000000000000000e-03
-1.0000000000000000e-03 1.0000000000000000e-03
ITEM: ATOMS id x y z vx vy vz
1 -4.7333e-06 -8.44413e-07 -2.21326e-05 -77.3817 -49.9202 18.9436
2 -1.25718e-05 -4.1115e-06 -1.14216e-05 -1.83129 -38.1606 5.6453
3 2.91585e-06 2.09317e-05 1.38224e-05 48.5413 124.308 -47.2197
ITEM: TIMESTEP
650
ITEM: NUMBER OF ATOMS
3
ITEM: BOX BOUNDS mm mm mm
-1.0000000000000000e-03 1.0000000000000000e-03
-1.0000000000000000e-03 1.0000000000000000e-03
-1.0000000000000000e-03 1.0000000000000000e-03
ITEM: ATOMS id x y z vx vy vz
1 1.12041e-05 1.13874e-05 -3.95764e-06 11.2789 7.60671 25.6247
2 4.25498e-06 9.66449e-06 2.2388e-05 -57.4862 -2.31868 27.5798
3 -6.52717e-06 -3.26215e-05 -3.10684e-05 -4.91332 55.0924 -21.8452
ITEM: TIMESTEP
660
ITEM: NUMBER OF ATOMS
3
ITEM: BOX BOUNDS mm mm mm
-1.0000000000000000e-03 1.0000000000000000e-03
-1.0000000000000000e-03 1.0000000000000000e-03
-1.0000000000000000e-03 1.0000000000000000e-03
ITEM: ATOMS id x y z vx vy vz
1 -6.01388e-06 -5.0151e-06 5.62437e-06 32.3003 42.7651 -13.1483
2 1.21173e-05 -1.65279e-06 1.81123e-05 38.589 41.7465 -27.203
3 2.50895e-06 -4.52431e-06 -1.02858e-05 -23.1252 -140.927 46.5505
ITEM: TIMESTEP
670
ITEM: NUMBER OF ATOMS
3
ITEM: BOX BOUNDS mm mm mm
-1.0000000000000000e-03 1.0000000000000000e-03
-1.0000000000000000e-03 1.0000000000000000e-03
-1.0000000000000000e-03 1.0000000000000000e-03
ITEM: ATOMS id x y z vx vy vz
1 -3.93275e-06 -7.48057e-06 -3.13426e-05 -9.71798 -34.8823 -36.2587
2 -1.33788e-05 -9.60893e-06 1.70026e-06 19.2844 -18.1444 -11.6584
3 4.75183e-06 3.09045e-05 2.54605e-05 18.6551 19.6932 17.638
ITEM: TIMESTEP
680
ITEM: NUMBER OF ATOMS
3
ITEM: BOX BOUNDS mm mm mm
-1.0000000000000000e-03 1.0000000000000000e-03
-1.0000000000000000e-03 1.0000000000000000e-03
-1.0000000000000000e-03 1.0000000000000000e-03
ITEM: ATOMS id x y z vx vy vz
1 2.17615e-06 8.97824e-06 -2.04416e-05 -12.9534 -21.1765 42.6584
2 -6.85121e-07 6.4825e-06 -5.50955e-06 -56.9612 -32.7437 7.50133
3 -5.57671e-06 -1.16548e-05 6.53392e-06 15.3923 118.318 -42.3839
ITEM: TIMESTEP
690
ITEM: NUMBER OF ATOMS
3
ITEM: BOX BOUNDS mm mm mm
-1.0000000000000000e-03 1.0000000000000000e-03
-1.0000000000000000e-03 1.0000000000000000e-03