LAMMPS (23 Jun 2022)
##################################################################
# LAMMPS input file generated using pylion 0.5.3
# simulation name: test
#
# pylion is written and maintained by Dimitris Trypogeorgos
# and Elliot Bentine. Download it from
# https://bitbucket.org/dtrypogeorgos/pylion
#
# If you find it useful please cite <paper>.
##################################################################



units si
atom_style charge

# Creating simulation box...
boundary m m m
region simulationDomain block -0.001  0.001 -0.001 0.001 -0.001 0.001 units box
create_box 1 simulationDomain
Created orthogonal box = (-0.001 -0.001 -0.001) to (0.001 0.001 0.001)
  1 by 1 by 1 MPI processor grid

# Configure neighbour list...
neighbor 1 nsq
neigh_modify once yes

# Configure pairwise interactions for long range Coulombics only...
pair_style coul/cut 10
pair_coeff * *

# Placing individual ions...


create_atoms 1 single -0.00023265060560657765 -0.00023391266191759278 6.727155892608414e-06 units box
Created 1 atoms
  using box units in orthogonal box = (-0.001 -0.001 -0.001) to (0.001 0.001 0.001)
  create_atoms CPU = 0.000 seconds

create_atoms 1 single -0.0002621840858578462 0.00023988279851861646 0.0009206944885616934 units box
Created 1 atoms
  using box units in orthogonal box = (-0.001 -0.001 -0.001) to (0.001 0.001 0.001)
  create_atoms CPU = 0.001 seconds

create_atoms 1 single 0.00020765730326546703 0.00033220520281391195 0.00032630274590600384 units box
Created 1 atoms
  using box units in orthogonal box = (-0.001 -0.001 -0.001) to (0.001 0.001 0.001)
  create_atoms CPU = 0.000 seconds


# Species...
mass 1 1.4944851e-26
set type 1 charge 1.6021764599999998e-19
Setting atom values ...
  3 settings made for charge
group 1 type 1
3 atoms in group 1



# Configuring additional output to flush buffer during simulation...
thermo 10000
thermo_style custom step cpu
thermo_modify flush yes

# Time integration...

group nonRigidBody union all
3 atoms in group nonRigidBody

fix timeIntegrator nonRigidBody nve



dump 9596714584 all custom 10 /Users/michaelmitchell/qlicS/data/2024-07-15_13-00-02/positions.txt id x y z vx vy vz





# Pseudopotential approximation for Linear Paul trap... (fixID=9601169797)


# SHO

variable k_x9601169797		equal 2.973789e-13

variable k_y9601169797		equal 2.973789e-13

variable k_z9601169797		equal 4.835556e-14

variable fX9601169797 atom "-v_k_x9601169797 * x"

variable fY9601169797 atom "-v_k_y9601169797 * y"

variable fZ9601169797 atom "-v_k_z9601169797 * z"

variable E9601169797 atom "v_k_x9601169797 * x * x /         2 + v_k_y9601169797 * y * y / 2 + v_k_z9601169797 * z * z / 2"

fix 9601169797 1 addforce         v_fX9601169797 v_fY9601169797 v_fZ9601169797 energy v_E9601169797




variable coolx atom (9.269386030594033e-20+(2.703426035144626e-21*vx))*-0.5000000000000001
variable cooly atom (9.269386030594033e-20+2.703426035144626e-21*vy)*-0.5000000000000001
variable coolz atom (9.269386030594033e-20+2.703426035144626e-21*vz)*-0.7071067811865476
fix 569202603907002 1 addforce v_coolx v_cooly v_coolz



timestep 1e-07


# Run simulation

run 50000
Generated 0 of 0 mixed pair_coeff terms from geometric mixing rule
Neighbor list info ...
  update every 1 steps, delay 10 steps, check yes
  max neighbors/atom: 2000, page size: 100000
  master list distance cutoff = 11
  ghost atom cutoff = 11
  1 neighbor lists, perpetual/occasional/extra = 1 0 0
  (1) pair coul/cut, perpetual
      attributes: half, newton on
      pair build: half/nsq/newton
      stencil: none
      bin: none
WARNING: Proc sub-domain size < neighbor skin, could lead to lost atoms (src/domain.cpp:970)
Per MPI rank memory allocation (min/avg/max) = 5.28 | 5.28 | 5.28 Mbytes
   Step          CPU      
         0   0            
     10000   0.36527065   
     20000   0.77205135   
     30000   1.1973335    
     40000   1.5997913    
     50000   1.9825519    
Loop time of 1.98262 on 1 procs for 50000 steps with 3 atoms

92.8% CPU use with 1 MPI tasks x no OpenMP threads

MPI task timing breakdown:
Section |  min time  |  avg time  |  max time  |%varavg| %total
---------------------------------------------------------------
Pair    | 0.012389   | 0.012389   | 0.012389   |   0.0 |  0.62
Neigh   | 0          | 0          | 0          |   0.0 |  0.00
Comm    | 0.0082612  | 0.0082612  | 0.0082612  |   0.0 |  0.42
Output  | 0.12246    | 0.12246    | 0.12246    |   0.0 |  6.18
Modify  | 1.8247     | 1.8247     | 1.8247     |   0.0 | 92.03
Other   |            | 0.01486    |            |       |  0.75

Nlocal:              3 ave           3 max           3 min
Histogram: 1 0 0 0 0 0 0 0 0 0
Nghost:              0 ave           0 max           0 min
Histogram: 1 0 0 0 0 0 0 0 0 0
Neighs:              3 ave           3 max           3 min
Histogram: 1 0 0 0 0 0 0 0 0 0

Total # of neighbors = 3
Ave neighs/atom = 1
Neighbor list builds = 0
Dangerous builds = 0


Total wall time: 0:00:01
