ITEM: TIMESTEP
0
ITEM: NUMBER OF ATOMS
10
ITEM: BOX BOUNDS mm mm mm
-1.0000000000000000e-03 1.0000000000000000e-03
-1.0000000000000000e-03 1.0000000000000000e-03
-1.0000000000000000e-03 1.0000000000000000e-03
ITEM: ATOMS id x y z vx vy vz
1 7.84492e-05 2.37623e-05 -0.000197342 0 0 0
2 9.1857e-05 -4.75745e-05 0.000676599 0 0 0
3 -0.000416808 0.000308544 -0.000521777 0 0 0
4 -0.000184171 4.66386e-05 -0.0001483 0 0 0
5 0.000144812 0.000382954 -0.000608197 0 0 0
6 1.44556e-05 8.03459e-07 -0.000734469 0 0 0
7 0.000179477 1.24026e-05 2.71589e-06 0 0 0
8 7.12857e-05 4.64834e-05 0.000873708 0 0 0
9 0.00033019 -0.000554748 -0.000245959 0 0 0
10 0.000499352 0.000181383 -1.8923e-06 0 0 0
ITEM: TIMESTEP
10
ITEM: NUMBER OF ATOMS
10
ITEM: BOX BOUNDS mm mm mm
-1.0000000000000000e-03 1.0000000000000000e-03
-1.0000000000000000e-03 1.0000000000000000e-03
-1.0000000000000000e-03 1.0000000000000000e-03
ITEM: ATOMS id x y z vx vy vz
1 3.62891e-05 1.09917e-05 -0.000187205 -756.526 -229.159 200.934
2 4.24909e-05 -2.20075e-05 0.00064184 -885.839 458.783 -689.052
3 -0.000192806 0.000142725 -0.000494973 4019.54 -2975.5 531.357
4 -8.51949e-05 2.15739e-05 -0.000140681 1776.04 -449.766 151.036
5 6.69869e-05 0.000177146 -0.000576953 -1396.51 -3693.08 619.361
6 6.68678e-06 3.71122e-07 -0.000696739 -139.407 -7.76104 747.941
7 8.30223e-05 5.73677e-06 2.57829e-06 -1730.81 -119.615 -2.72197
8 3.29749e-05 2.15027e-05 0.000828826 -687.46 -448.262 -889.723
9 0.000152738 -0.000256614 -0.000233323 -3184.25 5349.8 250.475
10 0.000230989 8.39042e-05 -1.79474e-06 -4815.56 -1749.19 1.93673
ITEM: TIMESTEP
20
ITEM: NUMBER OF ATOMS
10
ITEM: BOX BOUNDS mm mm mm
-1.0000000000000000e-03 1.0000000000000000e-03
-1.0000000000000000e-03 1.0000000000000000e-03
-1.0000000000000000e-03 1.0000000000000000e-03
ITEM: ATOMS id x y z vx vy vz
1 -4.48737e-05 -1.35928e-05 -0.000157847 -699.935 -212.003 381.067
2 -5.25464e-05 2.72136e-05 0.000541133 -819.538 424.459 -1307.32
3 0.000238431 -0.000176501 -0.000417311 3718.72 -2752.8 1008.17
4 0.000105346 -2.66789e-05 -0.000118595 1643.19 -416.108 286.759
5 -8.28374e-05 -0.000219065 -0.000486434 -1292 -3416.69 1175.05
6 -8.26942e-06 -4.61444e-07 -0.00058743 -128.971 -7.15905 1418.96
7 -0.000102685 -7.10484e-06 2.19537e-06 -1601.44 -110.737 -4.89973
8 -4.07791e-05 -2.65895e-05 0.000698792 -636.001 -414.724 -1688.01
9 -0.000188883 0.000317338 -0.000196724 -2945.93 4949.41 475.074
10 -0.000285632 -0.000103749 -1.51881e-06 -4455.01 -1618.2 3.5554
ITEM: TIMESTEP
30
ITEM: NUMBER OF ATOMS
10
ITEM: BOX BOUNDS mm mm mm
-1.0000000000000000e-03 1.0000000000000000e-03
-1.0000000000000000e-03 1.0000000000000000e-03
-1.0000000000000000e-03 1.0000000000000000e-03
ITEM: ATOMS id x y z vx vy vz
1 -7.78068e-05 -2.35671e-05 -0.000112282 108.983 33.0208 522.196
2 -9.11045e-05 4.71858e-05 0.000384825 127.639 -66.0661 -1791.26
3 0.000413393 -0.000306016 -0.000296772 -579.14 428.73 1381.35
4 0.000182664 -4.62564e-05 -8.4314e-05 -255.784 64.8033 392.812
5 -0.000143626 -0.000379818 -0.000345939 201.2 532.1 1610.04
6 -1.43371e-05 -7.9622e-07 -0.000417773 20.0911 1.14983 1944.25
7 -0.000178029 -1.23118e-05 1.60385e-06 249.451 17.3016 -6.82994
8 -7.07013e-05 -4.61036e-05 0.000496967 99.0694 64.5535 -2312.86
9 -0.000327485 0.000550203 -0.000139919 458.809 -770.817 651.004
10 -0.00049524 -0.000179887 -1.09086e-06 693.734 251.969 4.92608
ITEM: TIMESTEP
40
ITEM: NUMBER OF ATOMS
10
ITEM: BOX BOUNDS mm mm mm
-1.0000000000000000e-03 1.0000000000000000e-03
-1.0000000000000000e-03 1.0000000000000000e-03
-1.0000000000000000e-03 1.0000000000000000e-03
ITEM: ATOMS id x y z vx vy vz
1 -2.7107e-05 -8.20997e-06 -5.51857e-05 800.796 242.556 609.622
2 -3.17399e-05 1.64457e-05 0.000188975 937.613 -485.519 -2091.19
3 0.000144024 -0.000106612 -0.000145742 -4254.49 3149.42 1612.59
4 6.36511e-05 -1.6115e-05 -4.13691e-05 -1879.79 476.065 458.515
5 -5.00393e-05 -0.000132327 -0.000169904 1478.14 3908.93 1879.59
6 -4.99416e-06 -2.73717e-07 -0.000205197 147.563 8.23573 2269.74
7 -6.20236e-05 -4.28412e-06 8.53862e-07 1832.15 126.757 -7.99927
8 -2.46291e-05 -1.6068e-05 0.000244091 727.669 474.39 -2699.99
9 -0.000114091 0.000191685 -6.87383e-05 3370.39 -5662.51 760.044
10 -0.000172545 -6.26749e-05 -5.50334e-07 5096.79 1851.3 5.79305
ITEM: TIMESTEP
50
ITEM: NUMBER OF ATOMS
10
ITEM: BOX BOUNDS mm mm mm
-1.0000000000000000e-03 1.0000000000000000e-03
-1.0000000000000000e-03 1.0000000000000000e-03
-1.0000000000000000e-03 1.0000000000000000e-03
ITEM: ATOMS id x y z vx vy vz
1 5.27017e-05 1.59524e-05 7.48026e-06 631.725 190.836 633.276
2 6.17416e-05 -3.19834e-05 -2.63109e-05 739.912 -383.948 -2176.39
3 -0.000280135 0.000207384 2.02651e-05 -3356.94 2485.07 1678.23
4 -0.000123729 3.13384e-05 5.89607e-06 -1483.19 375.521 478.063
5 9.73178e-05 0.00025739 2.35651e-05 1166.21 3084.43 1955.74
6 9.70903e-06 5.45302e-07 2.83964e-05 115.923 6.28561 2361.1
7 0.000120751 8.39766e-06 9.95128e-08 1447.37 100.462 -7.3548
8 4.79119e-05 3.12526e-05 -3.37972e-05 573.842 375.508 -2809.06
9 0.000221917 -0.000372833 9.47234e-06 2659.19 -4467.67 790.548
10 0.000335511 0.000121851 6.45092e-08 4020.72 1460.28 6.30402
ITEM: TIMESTEP
60
ITEM: NUMBER OF ATOMS
10
ITEM: BOX BOUNDS mm mm mm
-1.0000000000000000e-03 1.0000000000000000e-03
-1.0000000000000000e-03 1.0000000000000000e-03
-1.0000000000000000e-03 1.0000000000000000e-03
ITEM: ATOMS id x y z vx vy vz
1 7.58679e-05 2.29379e-05 6.93541e-05 -216.052 -65.5238 593.227
2 8.8869e-05 -4.61053e-05 -0.000238904 -253.136 130.643 -2037.9
3 -0.000403198 0.000298481 0.000184192 1148.67 -850.396 1571.38
4 -0.000178129 4.51039e-05 5.25861e-05 507.037 -128.511 447.498
5 0.000140071 0.000370467 0.000214602 -399.033 -1055.36 1831.29
6 1.39297e-05 7.60861e-07 0.000259045 -40.097 -2.39103 2211.1
7 0.000173843 1.20726e-05 -6.26774e-07 -494.772 -34.5227 -7.06964
8 6.89311e-05 4.50748e-05 -0.000308205 -196.645 -127.549 -2630.58
9 0.000319395 -0.000536609 8.66956e-05 -910.018 1528.83 740.292
10 0.000482917 0.000175388 6.80834e-07 -1375.64 -499.588 5.91347
ITEM: TIMESTEP
70
ITEM: NUMBER OF ATOMS
10
ITEM: BOX BOUNDS mm mm mm
-1.0000000000000000e-03 1.0000000000000000e-03
-1.0000000000000000e-03 1.0000000000000000e-03
-1.0000000000000000e-03 1.0000000000000000e-03
ITEM: ATOMS id x y z vx vy vz
1 1.74837e-05 5.26973e-06 0.000124108 -831.574 -251.52 492.21
2 2.04769e-05 -1.06824e-05 -0.000426952 -974.113 505.01 -1689.87
3 -9.28875e-05 6.87584e-05 0.000329195 4419.62 -3271.81 1303.1
4 -4.10753e-05 1.03894e-05 9.38724e-05 1952.25 -494.411 370.932
5 3.22705e-05 8.53526e-05 0.000383592 -1535.37 -4060.81 1518.7
6 3.17505e-06 1.56026e-07 0.000463089 -152.886 -8.47232 1833.78
7 4.00918e-05 2.76978e-06 -1.29344e-06 -1905.32 -132.417 -6.1698
8 1.58572e-05 1.04576e-05 -0.00055096 -755.725 -493.645 -2181.69
9 7.35728e-05 -0.000123614 0.000155012 -3501.09 5882.05 613.983
10 0.000111265 4.04118e-05 1.22675e-06 -5293.37 -1922.46 4.89732
ITEM: TIMESTEP
80
ITEM: NUMBER OF ATOMS
10
ITEM: BOX BOUNDS mm mm mm
-1.0000000000000000e-03 1.0000000000000000e-03
-1.0000000000000000e-03 1.0000000000000000e-03
-1.0000000000000000e-03 1.0000000000000000e-03
ITEM: ATOMS id x y z vx vy vz
1 -5.96916e-05 -1.8062e-05 0.000166131 -553.316 -167.162 340.746
2 -6.99244e-05 3.62204e-05 -0.000571129 -648.076 336.633 -1168.22
3 0.00031726 -0.000234868 0.000440372 2940.22 -2176.56 900.86
4 0.000140122 -3.54918e-05 0.00012549 1299.27 -328.902 255.992
5 -0.000110215 -0.000291501 0.000513177 -1021.45 -2701.57 1050.1
6 -1.09925e-05 -6.18026e-07 0.000619566 -101.339 -5.40371 1268.11
7 -0.000137222 -9.76879e-06 -2.52719e-06 -1272.27 -90.2893 -13.0441
8 -5.42612e-05 -3.5398e-05 -0.000737117 -502.5 -329.207 -1508.61
9 -0.000251328 0.000422244 0.00020742 -2329.04 3913.03 424.809
10 -0.000379505 -0.000137742 2.32126e-06 -3517.36 -1276.69 11.6507
ITEM: TIMESTEP
90
ITEM: NUMBER OF ATOMS
10
ITEM: BOX BOUNDS mm mm mm
-1.0000000000000000e-03 1.0000000000000000e-03
-1.0000000000000000e-03 1.0000000000000000e-03
-1.0000000000000000e-03 1.0000000000000000e-03
ITEM: ATOMS id x y z vx vy vz
1 -7.27109e-05 -2.19796e-05 0.000191093 319.695 96.8621 154.087
2 -8.51678e-05 4.41933e-05 -0.000656622 374.543 -193.565 -526.561
3 0.000386405 -0.000286048 0.000506302 -1699.47 1258.17 406.124
4 0.000170718 -4.32252e-05 0.000144206 -750.246 190.131 115.037
5 -0.000134238 -0.000355038 0.000590038 590.372 1561.44 473.559
6 -1.33446e-05 -7.25784e-07 0.000712392 59.1319 3.4693 572.035
7 -0.000167174 -1.18776e-05 -3.68167e-06 734.791 52.4478 -9.83937
8 -6.60567e-05 -4.32076e-05 -0.000847547 290.838 189.071 -680.489
9 -0.000306091 0.000514258 0.000238523 1346.37 -2261.91 191.756
10 -0.000462239 -0.000167775 3.34695e-06 2032.76 737.769 8.68258
ITEM: TIMESTEP
100
ITEM: NUMBER OF ATOMS
10
ITEM: BOX BOUNDS mm mm mm
-1.0000000000000000e-03 1.0000000000000000e-03
-1.0000000000000000e-03 1.0000000000000000e-03
-1.0000000000000000e-03 1.0000000000000000e-03
ITEM: ATOMS id x y z vx vy vz
1 -7.57842e-06 -2.27226e-06 0.000196425 849.03 256.759 -48.3515
2 -8.86894e-06 4.6665e-06 -0.000674649 994.586 -515.718 169.199
3 4.02249e-05 -2.97708e-05 0.000520214 -4512.47 3340.55 -130.347
4 1.78237e-05 -4.49829e-06 0.000148105 -1993.29 504.788 -37.7851
5 -1.39769e-05 -3.69653e-05 0.000606277 1567.62 4146.14 -151.634
6 -1.35321e-06 -5.21212e-08 0.000732027 156.045 8.62486 -182.788
7 -1.74404e-05 -1.21874e-06 -4.46231e-06 1952.16 138.858 -5.66789
8 -6.85091e-06 -4.57678e-06 -0.0008709 771.568 504.133 217.548
9 -3.18532e-05 5.35246e-05 0.000245119 3574.62 -6005.59 -60.9747
10 -4.81399e-05 -1.74769e-05 4.02783e-06 5397.86 1959.18 4.81698
ITEM: TIMESTEP
110
ITEM: NUMBER OF ATOMS
10
ITEM: BOX BOUNDS mm mm mm
-1.0000000000000000e-03 1.0000000000000000e-03
-1.0000000000000000e-03 1.0000000000000000e-03
-1.0000000000000000e-03 1.0000000000000000e-03
ITEM: ATOMS id x y z vx vy vz
1 6.56988e-05 1.98775e-05 0.000181589 465.869 140.694 -245.791
2 7.69627e-05 -3.9876e-05 -0.000623358 545.602 -283.569 847.577
3 -0.00034919 0.000258506 0.000480674 -2475.31 1832.37 -653.451
4 -0.000154227 3.90634e-05 0.00013677 -1094.03 276.893 -186.821
5 0.000121307 0.000320839 0.000560229 859.952 2274.41 -761.229
6 1.20927e-05 6.77869e-07 0.000676458 85.2318 4.47355 -918.807
7 0.000150993 1.07261e-05 -4.92838e-06 1070.8 75.7634 -2.35227
8 5.97186e-05 3.89732e-05 -0.000804778 422.975 277.344 1093.23
9 0.000276621 -0.000464739 0.000226544 1960.73 -3294.26 -307.349
10 0.000417748 0.00015163 4.42356e-06 2961.62 1075.04 1.85385
ITEM: TIMESTEP
120
ITEM: NUMBER OF ATOMS
10
ITEM: BOX BOUNDS mm mm mm
-1.0000000000000000e-03 1.0000000000000000e-03
-1.0000000000000000e-03 1.0000000000000000e-03
-1.0000000000000000e-03 1.0000000000000000e-03
ITEM: ATOMS id x y z vx vy vz
1 6.83621e-05 2.06621e-05 0.000148101 -418.08 -126.615 -418.059
2 8.00713e-05 -4.15593e-05 -0.000508018 -489.82 253.361 1438.87
3 -0.000363281 0.000268929 0.000391748 2222.45 -1645.33 -1109.38
4 -0.000160514 4.06383e-05 0.000111379 981.212 -248.633 -316.515
5 0.000126206 0.000333792 0.000456622 -772.046 -2041.97 -1292.63
6 1.25407e-05 6.77683e-07 0.000551391 -77.1935 -4.47692 -1560.47
7 0.000157124 1.11365e-05 -4.90843e-06 -960.782 -68.3992 2.7467
8 6.20993e-05 4.06343e-05 -0.000655974 -380.255 -247.536 1856.59
9 0.000287771 -0.000483481 0.000184694 -1760.66 2957.94 -522.264
10 0.000434633 0.000157764 4.37828e-06 -2658.64 -964.975 -2.75135
ITEM: TIMESTEP
130
ITEM: NUMBER OF ATOMS
10
ITEM: BOX BOUNDS mm mm mm
-1.0000000000000000e-03 1.0000000000000000e-03
-1.0000000000000000e-03 1.0000000000000000e-03
-1.0000000000000000e-03 1.0000000000000000e-03
ITEM: ATOMS id x y z vx vy vz
1 -2.45125e-06 -7.62092e-07 9.94029e-05 -852.549 -257.84 -547.155
2 -2.88426e-06 1.42492e-06 -0.000340479 -998.759 517.963 1882.36
3 1.30962e-05 -9.70439e-06 0.000262573 4531.36 -3354.54 -1451.37
4 5.7184e-06 -1.46646e-06 7.45417e-05 2001.63 -506.897 -413.923
5 -4.5455e-06 -1.2027e-05 0.000306101 -1574.17 -4163.5 -1691.18
6 -4.90879e-07 -5.29687e-08 0.000369676 -156.649 -8.64816 -2041.69
7 -5.62935e-06 -4.25394e-07 -4.39176e-06 -1959.57 -138.997 7.14919
8 -2.26791e-06 -1.37814e-06 -0.00043978 -774.769 -506.35 2429.13
9 -1.03879e-05 1.74412e-05 0.000123869 -3589.59 6030.75 -683.376
10 -1.564e-05 -5.67122e-06 3.8821e-06 -5421.31 -1967.82 -6.87545
ITEM: TIMESTEP
140
ITEM: NUMBER OF ATOMS
10
ITEM: BOX BOUNDS mm mm mm
-1.0000000000000000e-03 1.0000000000000000e-03
-1.0000000000000000e-03 1.0000000000000000e-03
-1.0000000000000000e-03 1.0000000000000000e-03
ITEM: ATOMS id x y z vx vy vz
1 -7.06283e-05 -2.13716e-05 4.05276e-05 -370.746 -111.941 -620.069
2 -8.27401e-05 4.28803e-05 -0.00013795 -434.201 225.959 2132.45
3 0.0003754 -0.000277908 0.000106415 1969.88 -1458.17 -1644.21
4 0.00016581 -4.19956e-05 3.00091e-05 870.952 -220.347 -468.73
5 -0.000130412 -0.000344921 0.00012414 -684.38 -1810.03 -1915.96
6 -1.29945e-05 -7.25664e-07 0.000150001 -67.7138 -3.44412 -2313.1
7 -0.000162298 -1.15106e-05 -3.49978e-06 -852.104 -60.0881 10.846
8 -6.41969e-05 -4.19117e-05 -0.000178418 -336.495 -221.024 2752
9 -0.000297385 0.000499624 5.0341e-05 -1560.32 2621.58 -774.31
10 -0.00044914 -0.00016303 3.02444e-06 -2357.19 -855.695 -10.3125
ITEM: TIMESTEP
150
ITEM: NUMBER OF ATOMS
10
ITEM: BOX BOUNDS mm mm mm
-1.0000000000000000e-03 1.0000000000000000e-03
-1.0000000000000000e-03 1.0000000000000000e-03
-1.0000000000000000e-03 1.0000000000000000e-03
ITEM: ATOMS id x y z vx vy vz
1 -6.28939e-05 -1.90055e-05 -2.25008e-05 509.483 154.446 -629.461
2 -7.36657e-05 3.82688e-05 7.8749e-05 597.024 -308.646 2163.37
3 0.00033421 -0.000247405 -6.06756e-05 -2708.99 2005.52 -1668.12
4 0.000147693 -3.73859e-05 -1.76081e-05 -1196.04 303.063 -475.212
5 -0.000116107 -0.000307084 -7.05727e-05 941.071 2488.99 -1943.95
6 -1.15173e-05 -6.12206e-07 -8.50721e-05 94.2953 5.49991 -2346.99
7 -0.000144542 -1.02221e-05 -2.25326e-06 1170.69 83.2055 13.8468
8 -5.7117e-05 -3.74237e-05 0.000101255 463.564 301.437 2792.27
9 -0.00026474 0.000444791 -2.83587e-05 2146.11 -3605.52 -785.798
10 -0.00039989 -0.000145159 1.85537e-06 3240.95 1176.38 -12.8625
ITEM: TIMESTEP
160
ITEM: NUMBER OF ATOMS
10
ITEM: BOX BOUNDS mm mm mm
-1.0000000000000000e-03 1.0000000000000000e-03
-1.0000000000000000e-03 1.0000000000000000e-03
-1.0000000000000000e-03 1.0000000000000000e-03
ITEM: ATOMS id x y z vx vy vz
1 1.24343e-05 3.79582e-06 -8.32346e-05 842.211 254.743 -574.829
2 1.45839e-05 -7.44293e-06 0.000287359 986.561 -511.696 1971.95
3 -6.6197e-05 4.90168e-05 -0.000221532 -4476.06 3313.56 -1520.58
4 -2.9152e-05 7.40734e-06 -6.34086e-05 -1977.37 500.728 -432.405
5 2.29923e-05 6.08125e-05 -0.000258039 1554.98 4112.68 -1772.34
6 2.36061e-06 1.68848e-07 -0.000311423 154.711 8.50243 -2140.17
7 2.85468e-05 2.0566e-06 -7.66903e-07 1935.2 137.045 15.7354
8 1.13651e-05 7.24832e-06 0.000370546 765.282 500.229 2546.05
9 5.24577e-05 -8.81182e-05 -0.000104148 3545.79 -5957.19 -716.755
10 7.91689e-05 2.87311e-05 5.00107e-07 5355.6 1944.04 -13.8369
ITEM: TIMESTEP
170
ITEM: NUMBER OF ATOMS
10
ITEM: BOX BOUNDS mm mm mm
-1.0000000000000000e-03 1.0000000000000000e-03
-1.0000000000000000e-03 1.0000000000000000e-03
-1.0000000000000000e-03 1.0000000000000000e-03
ITEM: ATOMS id x y z vx vy vz
1 7.44012e-05 2.25187e-05 -0.000135471 269.695 81.2258 -460.643
2 8.71576e-05 -4.51517e-05 0.000466433 315.722 -164.958 1577.96
3 -0.000395453 0.000292753 -0.000359625 -1432.18 1060.09 -1216.89
4 -0.000174665 4.42396e-05 -0.000102653 -633.665 160.193 -345.583
5 0.00013738 0.000363344 -0.000419004 497.593 1316.02 -1418.54
6 1.37017e-05 7.68332e-07 -0.000505806 48.7976 2.27586 -1713.16
7 0.000170937 1.21192e-05 8.28319e-07 619.908 43.5387 15.8376
8 6.76321e-05 4.41269e-05 0.000601792 244.39 161.528 2038.03
9 0.000313272 -0.000526316 -0.000169255 1134.33 -1905.92 -573.886
10 0.000473145 0.000171746 -8.83131e-07 1713.97 622.227 -13.6042
ITEM: TIMESTEP
180
ITEM: NUMBER OF ATOMS
10
ITEM: BOX BOUNDS mm mm mm
-1.0000000000000000e-03 1.0000000000000000e-03
-1.0000000000000000e-03 1.0000000000000000e-03
-1.0000000000000000e-03 1.0000000000000000e-03
ITEM: ATOMS id x y z vx vy vz
1 5.63978e-05 1.70368e-05 -0.000173794 -592.75 -179.594 -299.053
2 6.60505e-05 -3.43325e-05 0.000597581 -694.473 359.104 1021.87
3 -0.00029966 0.000221825 -0.000460769 3151.12 -2332.84 -788.148
4 -0.000132445 3.35209e-05 -0.00013135 1391.26 -352.533 -223.281
5 0.000104106 0.000275339 -0.00053692 -1094.66 -2895.21 -918.982
6 1.03153e-05 5.40393e-07 -0.000648224 -109.564 -6.36682 -1110.08
7 0.000129599 9.15435e-06 2.34482e-06 -1361.69 -96.7418 14.2254
8 5.12041e-05 3.35788e-05 0.000771215 -539.18 -350.809 1320.53
9 0.000237367 -0.000398806 -0.000216972 -2496.38 4193.98 -372.042
10 0.000358566 0.000130162 -2.17479e-06 -3770 -1368.43 -12.0003
ITEM: TIMESTEP
190
ITEM: NUMBER OF ATOMS
10
ITEM: BOX BOUNDS mm mm mm
-1.0000000000000000e-03 1.0000000000000000e-03
-1.0000000000000000e-03 1.0000000000000000e-03
-1.0000000000000000e-03 1.0000000000000000e-03
ITEM: ATOMS id x y z vx vy vz
1 -2.2222e-05 -6.75669e-06 -0.000194268 -818.059 -247.371 -106.867
2 -2.60506e-05 1.33874e-05 0.000667329 -958.217 497.201 360.781
3 0.000118219 -8.75297e-05 -0.000514571 4347.45 -3218.32 -278.386
4 5.2125e-05 -1.32272e-05 -0.000146544 1920.79 -486.335 -77.8487
5 -4.1064e-05 -0.000108611 -0.000599674 -1510.32 -3994.53 -325.025
6 -4.15861e-06 -2.70115e-07 -0.000724046 -150.16 -8.16552 -393.005
7 -5.10508e-05 -3.65842e-06 3.63625e-06 -1880.02 -133.21 11.5339
8 -2.0261e-05 -1.30601e-05 0.000861405 -743.209 -486.096 467.357
9 -9.36697e-05 0.000157356 -0.000242401 -3443.86 5785.98 -132.105
10 -0.000141399 -5.13175e-05 -3.24961e-06 -5201.47 -1888.06 -9.42746
ITEM: TIMESTEP
200
ITEM: NUMBER OF ATOMS
10
ITEM: BOX BOUNDS mm mm mm
-1.0000000000000000e-03 1.0000000000000000e-03
-1.0000000000000000e-03 1.0000000000000000e-03
-1.0000000000000000e-03 1.0000000000000000e-03
ITEM: ATOMS id x y z vx vy vz
1 -7.69586e-05 -2.32878e-05 -0.000194796 -164.132 -49.2662 96.4172
2 -9.01513e-05 4.67183e-05 0.00066851 -192.025 100.899 -337.366
3 0.000409032 -0.000302804 -0.000515502 870.976 -644.618 259.935
4 0.000180673 -4.57584e-05 -0.000146667 385.891 -97.411 75.4057
5 -0.000142097 -0.000375822 -0.000600817 -302.642 -800.378 302.354
6 -1.41626e-05 -7.8943e-07 -0.000725484 -29.355 -1.15826 364.504
7 -0.000176848 -1.25488e-05 4.58633e-06 -377.334 -26.3283 7.28988
8 -6.99484e-05 -4.56617e-05 0.000863096 -148.397 -98.9182 -433.846
9 -0.000324027 0.000544386 -0.000242935 -689.732 1158.99 121.53
10 -0.000489365 -0.000177629 -4.00836e-06 -1042.5 -378.498 -5.61944
ITEM: TIMESTEP
210
ITEM: NUMBER OF ATOMS
10
ITEM: BOX BOUNDS mm mm mm
-1.0000000000000000e-03 1.0000000000000000e-03
-1.0000000000000000e-03 1.0000000000000000e-03
-1.0000000000000000e-03 1.0000000000000000e-03
ITEM: ATOMS id x y z vx vy vz
1 -4.89772e-05 -1.47877e-05 -0.000175313 666.235 201.794 289.81
2 -5.73532e-05 2.98354e-05 0.000601004 780.564 -403.851 -1000.85
3 0.000260199 -0.000192611 -0.000463469 -3541.67 2621.96 771.549
4 0.000115029 -2.91063e-05 -0.00013172 -1563.81 396.22 220.904
5 -9.03984e-05 -0.000239083 -0.000540232 1230.34 3254.06 898.667
6 -8.94385e-06 -4.59089e-07 -0.000652386 123.002 7.08767 1084.57
7 -0.000112561 -7.95038e-06 5.06913e-06 1530.91 108.845 2.28493
8 -4.44516e-05 -2.91851e-05 0.000776112 605.92 394.578 -1290.47
9 -0.000206105 0.000346285 -0.000218509 2805.76 -4713.76 362.683
10 -0.00031134 -0.000113017 -4.35455e-06 4237.02 1537.9 -1.24198
ITEM: TIMESTEP
220
ITEM: NUMBER OF ATOMS
10
ITEM: BOX BOUNDS mm mm mm
-1.0000000000000000e-03 1.0000000000000000e-03
-1.0000000000000000e-03 1.0000000000000000e-03
-1.0000000000000000e-03 1.0000000000000000e-03
ITEM: ATOMS id x y z vx vy vz
1 3.16443e-05 9.6062e-06 -0.000137827 780.519 235.942 453.251
2 3.70908e-05 -1.91149e-05 0.000471745 914.167 -474.535 -1561.52
3 -0.000168305 0.000124609 -0.000363816 -4147.58 3070.33 1203.94
4 -7.42455e-05 1.883e-05 -0.000103229 -1832.7 463.976 343.947
5 5.84632e-05 0.000154632 -0.000424143 1440.9 3810.9 1402.61
6 5.8883e-06 3.66453e-07 -0.000512264 143.149 7.70372 1693.11
7 7.27335e-05 5.20656e-06 5.07559e-06 1794.12 127.266 -1.94741
8 2.88242e-05 1.866e-05 0.000609393 708.962 463.975 -2014.48
9 0.000133347 -0.000224015 -0.00017164 3285.48 -5519.93 566.391
10 0.000201301 7.30566e-05 -4.28529e-06 4961.97 1801.06 2.44368
ITEM: TIMESTEP
230
ITEM: NUMBER OF ATOMS
10
ITEM: BOX BOUNDS mm mm mm
-1.0000000000000000e-03 1.0000000000000000e-03
-1.0000000000000000e-03 1.0000000000000000e-03
-1.0000000000000000e-03 1.0000000000000000e-03
ITEM: ATOMS id x y z vx vy vz
1 7.82555e-05 2.36741e-05 -8.61957e-05 55.8714 16.4976 570.272
2 9.16681e-05 -4.75216e-05 0.000294014 65.1858 -35.2124 -1961.75
3 -0.00041591 0.000307894 -0.00022678 -295.513 218.587 1512.58
4 -0.000183726 4.65273e-05 -6.41154e-05 -131.82 33.0316 431.417
5 0.000144487 0.000382144 -0.000264481 102.737 271.64 1762.47
6 1.43912e-05 7.96318e-07 -0.000319521 9.42897 0.0141076 2127.75
7 0.000179879 1.27806e-05 4.62742e-06 128.539 8.64755 -6.94725
8 7.11179e-05 4.64503e-05 0.000380072 49.9663 34.7106 -2531.5
9 0.000329472 -0.000553536 -0.000107147 233.838 -393.075 712.082
10 0.000497552 0.000180593 -3.8243e-06 354.036 128.606 6.69089
ITEM: TIMESTEP
240
ITEM: NUMBER OF ATOMS
10
ITEM: BOX BOUNDS mm mm mm
-1.0000000000000000e-03 1.0000000000000000e-03
-1.0000000000000000e-03 1.0000000000000000e-03
-1.0000000000000000e-03 1.0000000000000000e-03
ITEM: ATOMS id x y z vx vy vz
1 4.07502e-05 1.2296e-05 -2.57133e-05 -728.9 -220.662 628.689
2 4.77173e-05 -2.48583e-05 8.60726e-05 -853.846 441.827 -2160.37
3 -0.000216478 0.000160241 -6.6446e-05 3874.18 -2868.1 1665.81
4 -9.57345e-05 2.42146e-05 -1.84136e-05 1710.73 -433.418 474.555
5 7.52106e-05 0.000198913 -7.76471e-05 -1345.86 -3559.56 1941.24
6 7.42466e-06 3.6845e-07 -9.39561e-05 -134.456 -7.70315 2343.69
7 9.36904e-05 6.61605e-06 3.70923e-06 -1675.07 -119.272 -11.2502
8 3.69687e-05 2.43209e-05 0.000111711 -662.764 -431.758 -2788.32
9 0.000171466 -0.000288092 -3.1646e-05 -3069.15 5156.28 784.613
10 0.000259014 9.4021e-05 -2.97004e-06 -4634.42 -1682.08 10.2435
ITEM: TIMESTEP
250
ITEM: NUMBER OF ATOMS
10
ITEM: BOX BOUNDS mm mm mm
-1.0000000000000000e-03 1.0000000000000000e-03
-1.0000000000000000e-03 1.0000000000000000e-03
-1.0000000000000000e-03 1.0000000000000000e-03
ITEM: ATOMS id x y z vx vy vz
1 -3.04636e-05 -1.64131e-05 4.54111e-05 -550.289 -291.446 781.533
2 -4.7448e-05 2.41801e-05 -0.000130571 -854.153 439.858 -2134.19
3 0.000215353 -0.000159655 9.98151e-05 3874.95 -2872.36 1630.12
4 8.44798e-05 -2.00912e-05 2.04421e-05 1523.69 -361.61 295.651
5 -7.46259e-05 -0.000197968 0.00011785 -1342.92 -3562.54 1934.3
6 -7.88911e-06 -6.35501e-07 0.000142021 -138.959 -9.79911 2334.65
7 -9.25941e-05 -6.62294e-06 1.05189e-07 -1668.99 -118.236 -60.5313
8 -3.72096e-05 -2.27234e-05 -0.000168399 -667.112 -417.367 -2765.02
9 -0.000170337 0.000286175 5.0307e-05 -3064.33 5148.72 840.004
10 -0.000257862 -9.35776e-05 -2.38237e-06 -4640.88 -1684.35 1.39775
ITEM: TIMESTEP
260
ITEM: NUMBER OF ATOMS
10
ITEM: BOX BOUNDS mm mm mm
-1.0000000000000000e-03 1.0000000000000000e-03
-1.0000000000000000e-03 1.0000000000000000e-03
-1.0000000000000000e-03 1.0000000000000000e-03
ITEM: ATOMS id x y z vx vy vz
1 -5.8942e-05 -3.13475e-05 0.000119904 39.2534 23.4624 695.178
2 -9.15686e-05 4.70446e-05 -0.00033365 62.4462 -29.6131 -1891.56
3 0.000415453 -0.00030797 0.000254926 -284.307 210.965 1444.74
4 0.000163275 -3.8767e-05 4.8453e-05 -109.802 26.4854 259.628
5 -0.000143977 -0.000381948 0.000301937 98.4592 261.157 1714.95
6 -1.49744e-05 -1.09102e-06 0.000364226 11.8131 1.61693 2070.2
7 -0.000178872 -1.26994e-05 -5.85318e-06 120.834 9.19312 -57.575
8 -7.15844e-05 -4.45365e-05 -0.000431556 50.2707 25.9835 -2451.64
9 -0.000328558 0.000552034 0.000130294 225.186 -378.089 745.625
10 -0.000497546 -0.000180573 -2.12282e-06 339.937 123.281 3.74825
ITEM: TIMESTEP
270
ITEM: NUMBER OF ATOMS
10
ITEM: BOX BOUNDS mm mm mm
-1.0000000000000000e-03 1.0000000000000000e-03
-1.0000000000000000e-03 1.0000000000000000e-03
-1.0000000000000000e-03 1.0000000000000000e-03
ITEM: ATOMS id x y z vx vy vz
1 -2.40657e-05 -1.25881e-05 0.000182081 586.569 313.162 537.401
2 -3.7268e-05 1.93502e-05 -0.000502446 911.941 -467.351 -1454.57
3 0.000169007 -0.000125265 0.000383846 -4137.98 3067.54 1110.92
4 6.658e-05 -1.57738e-05 7.1484e-05 -1625.3 386.11 196.922
5 -5.85759e-05 -0.000155396 0.000455004 1434 3804.17 1319.38
6 -5.96375e-06 -3.7216e-07 0.000549015 149.876 11.2864 1592.98
7 -7.28947e-05 -5.12455e-06 -1.1214e-05 1780.86 126.733 -48.7035
8 -2.90153e-05 -1.84856e-05 -0.000650384 713.599 441.488 -1886.29
9 -0.000133629 0.000224542 0.000196895 3272.67 -5498.51 574.638
10 -0.000202447 -7.34813e-05 -1.6456e-06 4955.38 1798.4 5.70857
ITEM: TIMESTEP
280
ITEM: NUMBER OF ATOMS
10
ITEM: BOX BOUNDS mm mm mm
-1.0000000000000000e-03 1.0000000000000000e-03
-1.0000000000000000e-03 1.0000000000000000e-03
-1.0000000000000000e-03 1.0000000000000000e-03
ITEM: ATOMS id x y z vx vy vz
1 3.66722e-05 1.97115e-05 0.000225539 503.348 266.411 324.129
2 5.70898e-05 -2.91411e-05 -0.000619615 781.244 -402.796 -868.136
3 -0.000259093 0.00019208 0.000473327 -3544 2626.99 662.916
4 -0.000101672 2.41738e-05 8.71702e-05 -1393.93 330.724 114.025
5 8.97841e-05 0.000238181 0.000561326 1228.23 3258.32 788.282
6 9.45723e-06 7.48388e-07 0.000677405 126.841 8.80046 952.154
7 0.000111416 7.95153e-06 -1.54827e-05 1526.49 107.902 -35.726
8 4.47412e-05 2.7433e-05 -0.000802396 609.908 382.494 -1127.12
9 0.000204934 -0.000344306 0.000243288 2802.61 -4709.06 344.96
10 0.000310263 0.000112598 -9.56141e-07 4244.87 1540.67 7.80678
ITEM: TIMESTEP
290
ITEM: NUMBER OF ATOMS
10
ITEM: BOX BOUNDS mm mm mm
-1.0000000000000000e-03 1.0000000000000000e-03
-1.0000000000000000e-03 1.0000000000000000e-03
-1.0000000000000000e-03 1.0000000000000000e-03
ITEM: ATOMS id x y z vx vy vz
1 5.79902e-05 3.08321e-05 0.000245815 -120.812 -66.8591 77.8206
2 9.00849e-05 -4.63111e-05 -0.000673119 -189.171 94.6922 -192.518
3 -0.00040871 0.000302969 0.000514175 859.229 -637.167 146.843
4 -0.000160648 3.81383e-05 9.38997e-05 335.667 -80.1402 19.3783
5 0.000141642 0.000375752 0.000609977 -297.692 -789.712 176.158
6 1.4713e-05 1.06287e-06 0.000736202 -32.5303 -3.15576 213.41
7 0.000175957 1.24725e-05 -1.82007e-05 -368.34 -26.7754 -18.1512
8 7.04075e-05 4.38662e-05 -0.000871971 -149.345 -87.6119 -252.116
9 0.000323229 -0.000543087 0.000264699 -679.896 1142.07 79.4835
10 0.000489506 0.000177661 -1.39991e-07 -1028.48 -373.171 8.37329
ITEM: TIMESTEP
300
ITEM: NUMBER OF ATOMS
10
ITEM: BOX BOUNDS mm mm mm
-1.0000000000000000e-03 1.0000000000000000e-03
-1.0000000000000000e-03 1.0000000000000000e-03
-1.0000000000000000e-03 1.0000000000000000e-03
ITEM: ATOMS id x y z vx vy vz
1 1.69783e-05 8.81264e-06 0.000240838 -615.117 -328.261 -176.475
2 2.62525e-05 -1.37049e-05 -0.000657463 -956.256 490.403 502.88
3 -0.000119028 8.82132e-05 0.000502196 4338.9 -3216.47 -384.318
4 -4.69547e-05 1.11099e-05 9.09798e-05 1704.46 -404.864 -77.2622
5 4.12567e-05 0.000109448 0.000595958 -1503.64 -3988.92 -454.065
6 4.15438e-06 2.33799e-07 0.000719361 -156.936 -11.7262 -547.252
7 5.13719e-05 3.58667e-06 -1.90515e-05 -1867.27 -132.681 1.27364
8 2.03961e-05 1.3151e-05 -0.000851961 -748.074 -463.551 648.79
9 9.41023e-05 -0.000158134 0.000258914 -3431.61 5765.63 -194.156
10 0.000142607 5.17663e-05 6.89909e-07 -5196.36 -1885.9 8.07516
ITEM: TIMESTEP
310
ITEM: NUMBER OF ATOMS
10
ITEM: BOX BOUNDS mm mm mm
-1.0000000000000000e-03 1.0000000000000000e-03
-1.0000000000000000e-03 1.0000000000000000e-03
-1.0000000000000000e-03 1.0000000000000000e-03
ITEM: ATOMS id x y z vx vy vz
1 -4.22803e-05 -2.26835e-05 0.000211113 -448.247 -236.9 -412.737
2 -6.57973e-05 3.36316e-05 -0.000574254 -695.513 359.021 1146.62
3 0.00029859 -0.000221358 0.000438617 3154.96 -2338.57 -876.026
4 0.000117205 -2.78599e-05 7.87134e-05 1241.3 -294.423 -165.924
5 -0.000103472 -0.000274495 0.00052071 -1093.43 -2900.68 -1037.61
6 -1.08696e-05 -8.47413e-07 0.000628618 -112.657 -7.66359 -1251.63
7 -0.000128429 -9.1542e-06 -1.79787e-05 -1359.11 -95.9253 20.1708
8 -5.15381e-05 -3.16991e-05 -0.000744421 -542.733 -341.258 1483.02
9 -0.000236171 0.000396792 0.000226539 -2494.92 4192.13 -447.702
10 -0.000357572 -0.000129769 1.4676e-06 -3779.07 -1371.64 7.21548
ITEM: TIMESTEP
320
ITEM: NUMBER OF ATOMS
10
ITEM: BOX BOUNDS mm mm mm
-1.0000000000000000e-03 1.0000000000000000e-03
-1.0000000000000000e-03 1.0000000000000000e-03
-1.0000000000000000e-03 1.0000000000000000e-03
ITEM: ATOMS id x y z vx vy vz
1 -5.60932e-05 -2.98016e-05 0.000159697 200.386 109.172 -606.499
2 -8.71252e-05 4.48208e-05 -0.000432041 312.798 -158.235 1672.54
3 0.000395271 -0.000293004 0.000329973 -1420.08 1052.93 -1277.69
4 0.000155393 -3.68846e-05 5.83587e-05 -556.054 132.481 -237.577
5 -0.000136986 -0.0003634 0.000391965 492.05 1305.34 -1514.57
6 -1.42102e-05 -1.01603e-06 0.000473292 52.7129 4.63713 -1827.47
7 -0.000170185 -1.20526e-05 -1.50739e-05 609.823 43.9147 37.4133
8 -6.80763e-05 -4.2479e-05 -0.000560402 245.968 147.818 2164.88
9 -0.000312599 0.000525233 0.000170893 1123.47 -1887.35 -655.401
10 -0.000473424 -0.000171826 2.1012e-06 1700.19 616.952 5.34547
ITEM: TIMESTEP
330
ITEM: NUMBER OF ATOMS
10
ITEM: BOX BOUNDS mm mm mm
-1.0000000000000000e-03 1.0000000000000000e-03
-1.0000000000000000e-03 1.0000000000000000e-03
-1.0000000000000000e-03 1.0000000000000000e-03
ITEM: ATOMS id x y z vx vy vz
1 -9.61509e-06 -4.88692e-06 9.1878e-05 633.619 337.903 -737.885
2 -1.48073e-05 7.83828e-06 -0.000245436 984.894 -505.384 2026.66
3 6.70992e-05 -4.97166e-05 0.000187427 -4468.7 3312.67 -1548.07
4 2.65629e-05 -6.26368e-06 3.20056e-05 -1755.64 416.987 -284.859
5 -2.32618e-05 -6.17088e-05 0.00022295 1548.62 4108.26 -1835.89
6 -2.27663e-06 -9.09233e-08 0.000269344 161.428 11.9861 -2215.48
7 -2.90208e-05 -1.99516e-06 -1.06248e-05 1923.28 136.576 50.7357
8 -1.14419e-05 -7.6038e-06 -0.000318814 770.298 477.986 2624.22
9 -5.30313e-05 8.91306e-05 9.76889e-05 3534.28 -5938.16 -795.75
10 -8.0421e-05 -2.9198e-05 2.51827e-06 5351.92 1942.37 2.91158
ITEM: TIMESTEP
340
ITEM: NUMBER OF ATOMS
10
ITEM: BOX BOUNDS mm mm mm