LAMMPS (23 Jun 2022)
##################################################################
# LAMMPS input file generated using pylion 0.5.3
# simulation name: test
#
# pylion is written and maintained by Dimitris Trypogeorgos
# and Elliot Bentine. Download it from
# https://bitbucket.org/dtrypogeorgos/pylion
#
# If you find it useful please cite <paper>.
##################################################################



units si
atom_style charge

# Creating simulation box...
boundary m m m
region simulationDomain block -0.001  0.001 -0.001 0.001 -0.001 0.001 units box
create_box 1 simulationDomain
Created orthogonal box = (-0.001 -0.001 -0.001) to (0.001 0.001 0.001)
  1 by 1 by 1 MPI processor grid

# Configure neighbour list...
neighbor 1 nsq
neigh_modify once yes

# Configure pairwise interactions for long range Coulombics only...
pair_style coul/cut 10
pair_coeff * *

# Placing individual ions...


create_atoms 1 single -5.5425439379249264e-06 2.9214290401241413e-05 0.0006758686159865128 units box
Created 1 atoms
  using box units in orthogonal box = (-0.001 -0.001 -0.001) to (0.001 0.001 0.001)
  create_atoms CPU = 0.000 seconds

create_atoms 1 single -0.0004262902544562013 -3.794762339972959e-05 -0.00010879830577143723 units box
Created 1 atoms
  using box units in orthogonal box = (-0.001 -0.001 -0.001) to (0.001 0.001 0.001)
  create_atoms CPU = 0.000 seconds

create_atoms 1 single 0.00022143109584532068 -0.0005115743308031485 -0.00021409929272737582 units box
Created 1 atoms
  using box units in orthogonal box = (-0.001 -0.001 -0.001) to (0.001 0.001 0.001)
  create_atoms CPU = 0.000 seconds

create_atoms 1 single -3.4877286011884523e-05 -1.7606387963560235e-06 -0.00010657891462993931 units box
Created 1 atoms
  using box units in orthogonal box = (-0.001 -0.001 -0.001) to (0.001 0.001 0.001)
  create_atoms CPU = 0.000 seconds

create_atoms 1 single 2.2249042420600246e-05 -0.0004240483066359562 -0.0008446323569523626 units box
Created 1 atoms
  using box units in orthogonal box = (-0.001 -0.001 -0.001) to (0.001 0.001 0.001)
  create_atoms CPU = 0.000 seconds

create_atoms 1 single 0.0003457371094081952 -4.046689145486819e-05 -0.0001186509413890669 units box
Created 1 atoms
  using box units in orthogonal box = (-0.001 -0.001 -0.001) to (0.001 0.001 0.001)
  create_atoms CPU = 0.000 seconds

create_atoms 1 single -0.0001482223887793835 -0.00012889487101586764 0.0009147572426148433 units box
Created 1 atoms
  using box units in orthogonal box = (-0.001 -0.001 -0.001) to (0.001 0.001 0.001)
  create_atoms CPU = 0.000 seconds

create_atoms 1 single -1.5044786261109126e-05 3.1124172077233482e-06 -2.8276161173286606e-05 units box
Created 1 atoms
  using box units in orthogonal box = (-0.001 -0.001 -0.001) to (0.001 0.001 0.001)
  create_atoms CPU = 0.000 seconds

create_atoms 1 single 1.8447134338490017e-05 -0.00013170711984708807 4.736920580545563e-05 units box
Created 1 atoms
  using box units in orthogonal box = (-0.001 -0.001 -0.001) to (0.001 0.001 0.001)
  create_atoms CPU = 0.000 seconds

create_atoms 1 single 6.0076014670554904e-05 6.522801799442795e-05 0.0003518755441805705 units box
Created 1 atoms
  using box units in orthogonal box = (-0.001 -0.001 -0.001) to (0.001 0.001 0.001)
  create_atoms CPU = 0.000 seconds

create_atoms 1 single -4.980196163308313e-05 -0.00014385084999812947 -0.00038443462101724204 units box
Created 1 atoms
  using box units in orthogonal box = (-0.001 -0.001 -0.001) to (0.001 0.001 0.001)
  create_atoms CPU = 0.000 seconds

create_atoms 1 single -7.316377472469045e-06 -0.0003866298136247808 -0.0007607169900598566 units box
Created 1 atoms
  using box units in orthogonal box = (-0.001 -0.001 -0.001) to (0.001 0.001 0.001)
  create_atoms CPU = 0.000 seconds

create_atoms 1 single 0.0007373101179448105 0.0004069662511911634 -0.0004546038198942671 units box
Created 1 atoms
  using box units in orthogonal box = (-0.001 -0.001 -0.001) to (0.001 0.001 0.001)
  create_atoms CPU = 0.000 seconds

create_atoms 1 single 0.0005642446165800339 -0.00022730205389165568 -0.00014639993870176125 units box
Created 1 atoms
  using box units in orthogonal box = (-0.001 -0.001 -0.001) to (0.001 0.001 0.001)
  create_atoms CPU = 0.000 seconds

create_atoms 1 single -0.0003189765374501041 -0.0002083650012731975 0.00044704530749964795 units box
Created 1 atoms
  using box units in orthogonal box = (-0.001 -0.001 -0.001) to (0.001 0.001 0.001)
  create_atoms CPU = 0.000 seconds

create_atoms 1 single 6.810817084262654e-05 -0.0009851355800664882 -3.600670794107063e-05 units box
Created 1 atoms
  using box units in orthogonal box = (-0.001 -0.001 -0.001) to (0.001 0.001 0.001)
  create_atoms CPU = 0.000 seconds

create_atoms 1 single -1.5567274992934492e-05 -6.268954013248893e-05 3.205509611360625e-05 units box
Created 1 atoms
  using box units in orthogonal box = (-0.001 -0.001 -0.001) to (0.001 0.001 0.001)
  create_atoms CPU = 0.000 seconds

create_atoms 1 single -0.0001742982814350686 8.267647897693666e-05 0.0003376899976763461 units box
Created 1 atoms
  using box units in orthogonal box = (-0.001 -0.001 -0.001) to (0.001 0.001 0.001)
  create_atoms CPU = 0.000 seconds

create_atoms 1 single -0.00015558523784741475 -0.0002281881715664383 -8.275097316876844e-05 units box
Created 1 atoms
  using box units in orthogonal box = (-0.001 -0.001 -0.001) to (0.001 0.001 0.001)
  create_atoms CPU = 0.000 seconds

create_atoms 1 single 8.999039188556271e-06 1.0019712049747618e-05 0.0005892745607590559 units box
Created 1 atoms
  using box units in orthogonal box = (-0.001 -0.001 -0.001) to (0.001 0.001 0.001)
  create_atoms CPU = 0.000 seconds

create_atoms 1 single -0.00010585350435691493 1.6749722777077987e-05 -7.589476735498918e-05 units box
Created 1 atoms
  using box units in orthogonal box = (-0.001 -0.001 -0.001) to (0.001 0.001 0.001)
  create_atoms CPU = 0.000 seconds

create_atoms 1 single 0.00020420771424559234 0.00013149621850794648 -0.00044066341472216887 units box
Created 1 atoms
  using box units in orthogonal box = (-0.001 -0.001 -0.001) to (0.001 0.001 0.001)
  create_atoms CPU = 0.000 seconds

create_atoms 1 single 0.00046115599289624784 0.00015270688273998239 -0.000666616902724524 units box
Created 1 atoms
  using box units in orthogonal box = (-0.001 -0.001 -0.001) to (0.001 0.001 0.001)
  create_atoms CPU = 0.000 seconds

create_atoms 1 single 0.00021105808730598536 0.0006048258634076584 -0.00029909914309115334 units box
Created 1 atoms
  using box units in orthogonal box = (-0.001 -0.001 -0.001) to (0.001 0.001 0.001)
  create_atoms CPU = 0.000 seconds

create_atoms 1 single -0.000548241464821558 0.00020826462147244192 -0.0006222904275663417 units box
Created 1 atoms
  using box units in orthogonal box = (-0.001 -0.001 -0.001) to (0.001 0.001 0.001)
  create_atoms CPU = 0.000 seconds

create_atoms 1 single 6.10136459920122e-05 -9.087822996472034e-06 1.5757219324343983e-05 units box
Created 1 atoms
  using box units in orthogonal box = (-0.001 -0.001 -0.001) to (0.001 0.001 0.001)
  create_atoms CPU = 0.000 seconds

create_atoms 1 single 0.00027099429114770587 0.0004469854940728405 -0.000780312449491858 units box
Created 1 atoms
  using box units in orthogonal box = (-0.001 -0.001 -0.001) to (0.001 0.001 0.001)
  create_atoms CPU = 0.000 seconds

create_atoms 1 single -0.00021453161336498948 -0.0001792075596990341 0.0004146978116334167 units box
Created 1 atoms
  using box units in orthogonal box = (-0.001 -0.001 -0.001) to (0.001 0.001 0.001)
  create_atoms CPU = 0.000 seconds

create_atoms 1 single 7.179537543072676e-05 0.0003570978827059072 7.117639143924359e-05 units box
Created 1 atoms
  using box units in orthogonal box = (-0.001 -0.001 -0.001) to (0.001 0.001 0.001)
  create_atoms CPU = 0.000 seconds

create_atoms 1 single 0.00037445294729440795 -0.00014805312844492252 2.4415194507064015e-05 units box
Created 1 atoms
  using box units in orthogonal box = (-0.001 -0.001 -0.001) to (0.001 0.001 0.001)
  create_atoms CPU = 0.000 seconds

create_atoms 1 single 8.542593646115556e-05 -2.6506268918172317e-05 -0.0007932889102543047 units box
Created 1 atoms
  using box units in orthogonal box = (-0.001 -0.001 -0.001) to (0.001 0.001 0.001)
  create_atoms CPU = 0.000 seconds

create_atoms 1 single 1.8572656187817846e-05 -7.970974713722402e-06 -0.000446603412950813 units box
Created 1 atoms
  using box units in orthogonal box = (-0.001 -0.001 -0.001) to (0.001 0.001 0.001)
  create_atoms CPU = 0.000 seconds

create_atoms 1 single -1.1229494242065177e-05 -4.551371887139495e-06 -3.400503601913131e-05 units box
Created 1 atoms
  using box units in orthogonal box = (-0.001 -0.001 -0.001) to (0.001 0.001 0.001)
  create_atoms CPU = 0.000 seconds

create_atoms 1 single -0.00023824246253407425 0.00048530590061570035 -7.144653024211974e-05 units box
Created 1 atoms
  using box units in orthogonal box = (-0.001 -0.001 -0.001) to (0.001 0.001 0.001)
  create_atoms CPU = 0.000 seconds

create_atoms 1 single -0.00010246369449283273 0.00023156843835288419 1.8007216823268438e-05 units box
Created 1 atoms
  using box units in orthogonal box = (-0.001 -0.001 -0.001) to (0.001 0.001 0.001)
  create_atoms CPU = 0.000 seconds

create_atoms 1 single 0.00016963396129030843 0.0003163986804362883 -0.0001082455916182733 units box
Created 1 atoms
  using box units in orthogonal box = (-0.001 -0.001 -0.001) to (0.001 0.001 0.001)
  create_atoms CPU = 0.000 seconds

create_atoms 1 single -0.0003296984336658875 0.0005632385194119636 0.0004925529335475086 units box
Created 1 atoms
  using box units in orthogonal box = (-0.001 -0.001 -0.001) to (0.001 0.001 0.001)
  create_atoms CPU = 0.000 seconds

create_atoms 1 single 3.0530892854362466e-05 -4.4875091300017835e-06 0.0008114265804192742 units box
Created 1 atoms
  using box units in orthogonal box = (-0.001 -0.001 -0.001) to (0.001 0.001 0.001)
  create_atoms CPU = 0.000 seconds

create_atoms 1 single 0.000387151370982365 0.000673727130401942 -0.00033086002947944513 units box
Created 1 atoms
  using box units in orthogonal box = (-0.001 -0.001 -0.001) to (0.001 0.001 0.001)
  create_atoms CPU = 0.000 seconds

create_atoms 1 single 5.9972418002873594e-05 -1.7696458668336054e-05 0.0002540131954283258 units box
Created 1 atoms
  using box units in orthogonal box = (-0.001 -0.001 -0.001) to (0.001 0.001 0.001)
  create_atoms CPU = 0.000 seconds

create_atoms 1 single 0.0001439610721364415 1.4365011528974696e-06 0.00020994457058544084 units box
Created 1 atoms
  using box units in orthogonal box = (-0.001 -0.001 -0.001) to (0.001 0.001 0.001)
  create_atoms CPU = 0.000 seconds

create_atoms 1 single 0.00042370963299121427 3.8000860018793394e-06 -0.0003058772115929808 units box
Created 1 atoms
  using box units in orthogonal box = (-0.001 -0.001 -0.001) to (0.001 0.001 0.001)
  create_atoms CPU = 0.000 seconds

create_atoms 1 single 4.008816663262198e-05 6.324490744097748e-05 -0.00033966511819891854 units box
Created 1 atoms
  using box units in orthogonal box = (-0.001 -0.001 -0.001) to (0.001 0.001 0.001)
  create_atoms CPU = 0.000 seconds

create_atoms 1 single -0.0001170962171428023 -0.00011008941585201433 -0.0008615777391486882 units box
Created 1 atoms
  using box units in orthogonal box = (-0.001 -0.001 -0.001) to (0.001 0.001 0.001)
  create_atoms CPU = 0.000 seconds

create_atoms 1 single 0.0002651582908145032 7.570458639303578e-05 0.0008460409152862323 units box
Created 1 atoms
  using box units in orthogonal box = (-0.001 -0.001 -0.001) to (0.001 0.001 0.001)
  create_atoms CPU = 0.000 seconds

create_atoms 1 single -4.6540300613546634e-05 0.00043071845628759003 -0.00037977540839344135 units box
Created 1 atoms
  using box units in orthogonal box = (-0.001 -0.001 -0.001) to (0.001 0.001 0.001)
  create_atoms CPU = 0.000 seconds

create_atoms 1 single 0.0008531186643247928 0.0004722539392522582 -0.00019760386867047366 units box
Created 1 atoms
  using box units in orthogonal box = (-0.001 -0.001 -0.001) to (0.001 0.001 0.001)
  create_atoms CPU = 0.000 seconds

create_atoms 1 single -1.4169918442255066e-05 -0.0006079456547984836 -0.00027945245567802084 units box
Created 1 atoms
  using box units in orthogonal box = (-0.001 -0.001 -0.001) to (0.001 0.001 0.001)
  create_atoms CPU = 0.000 seconds

create_atoms 1 single -0.00018844525409244327 -0.0009379868072459055 3.008010520011463e-05 units box
Created 1 atoms
  using box units in orthogonal box = (-0.001 -0.001 -0.001) to (0.001 0.001 0.001)
  create_atoms CPU = 0.000 seconds

create_atoms 1 single -0.0005990491830631908 0.00014908643117852633 -0.0001332441573669178 units box
Created 1 atoms
  using box units in orthogonal box = (-0.001 -0.001 -0.001) to (0.001 0.001 0.001)
  create_atoms CPU = 0.000 seconds


# Species...
mass 1 1.4944851e-26
set type 1 charge 1.6021764599999998e-19
Setting atom values ...
  50 settings made for charge
group 1 type 1
50 atoms in group 1


timestep 1e-06

# Configuring additional output to flush buffer during simulation...
thermo 10000
thermo_style custom step cpu
thermo_modify flush yes

# Time integration...

group nonRigidBody union all
50 atoms in group nonRigidBody

fix timeIntegrator nonRigidBody nve



dump 8891343801 all custom 10 /Users/michaelmitchell/qlicS/data/2024-06-28_15-57-22/positions.txt id x y z vx vy vz





# Pseudopotential approximation for Linear Paul trap... (fixID=8899278697)


# SHO

variable k_x8899278697		equal 1.773509e-12

variable k_y8899278697		equal 1.773509e-12

variable k_z8899278697		equal 1.548694e-13

variable fX8899278697 atom "-v_k_x8899278697 * x"

variable fY8899278697 atom "-v_k_y8899278697 * y"

variable fZ8899278697 atom "-v_k_z8899278697 * z"

variable E8899278697 atom "v_k_x8899278697 * x * x /         2 + v_k_y8899278697 * y * y / 2 + v_k_z8899278697 * z * z / 2"

fix 8899278697 all addforce         v_fX8899278697 v_fY8899278697 v_fZ8899278697 energy v_E8899278697




variable coolx atom (9.269386030594033e-20+(-2.703426035144626e-21*vx))*-0.5000000000000001
variable cooly atom (9.269386030594033e-20+-2.703426035144626e-21*vy)*-0.5000000000000001
variable coolz atom (9.269386030594033e-20+-2.703426035144626e-21*vz)*-0.7071067811865476
fix 569202603907002 1 addforce v_coolx v_cooly v_coolz



timestep 1e-08


# Run simulation

run 10000
Generated 0 of 0 mixed pair_coeff terms from geometric mixing rule
Neighbor list info ...
  update every 1 steps, delay 10 steps, check yes
  max neighbors/atom: 2000, page size: 100000
  master list distance cutoff = 11
  ghost atom cutoff = 11
  1 neighbor lists, perpetual/occasional/extra = 1 0 0
  (1) pair coul/cut, perpetual
      attributes: half, newton on
      pair build: half/nsq/newton
      stencil: none
      bin: none
WARNING: Proc sub-domain size < neighbor skin, could lead to lost atoms (src/domain.cpp:970)
Per MPI rank memory allocation (min/avg/max) = 5.283 | 5.283 | 5.283 Mbytes
   Step          CPU      
         0   0            
     10000   0.68839082   
Loop time of 0.68843 on 1 procs for 10000 steps with 50 atoms

97.4% CPU use with 1 MPI tasks x no OpenMP threads

MPI task timing breakdown:
Section |  min time  |  avg time  |  max time  |%varavg| %total
---------------------------------------------------------------
Pair    | 0.13205    | 0.13205    | 0.13205    |   0.0 | 19.18
Neigh   | 0          | 0          | 0          |   0.0 |  0.00
Comm    | 0.0014124  | 0.0014124  | 0.0014124  |   0.0 |  0.21
Output  | 0.10228    | 0.10228    | 0.10228    |   0.0 | 14.86
Modify  | 0.45013    | 0.45013    | 0.45013    |   0.0 | 65.38
Other   |            | 0.002564   |            |       |  0.37

Nlocal:             50 ave          50 max          50 min
Histogram: 1 0 0 0 0 0 0 0 0 0
Nghost:              0 ave           0 max           0 min
Histogram: 1 0 0 0 0 0 0 0 0 0
Neighs:           1225 ave        1225 max        1225 min
Histogram: 1 0 0 0 0 0 0 0 0 0

Total # of neighbors = 1225
Ave neighs/atom = 24.5
Neighbor list builds = 0
Dangerous builds = 0




variable E equal 0
variable Ex atom (0.003*(319.039+-320779.0*(x-0)+163840000.0*(x-0)^2+3188.37*(y-0)+-158115000.0*(y-0)^2+-0.483258*(z-0)+16206.1*(z-0)^2))*cos((2*3.141592653589793)*0.0007170000000000001*step)
variable B equal 0
variable Ey atom (0.003*(-3.62944+3527.19*(x-0)+660075.0*(x-0)^2+320888.0*(y-0)+-1252000.0*(y-0)^2+1.91814*(z-0)+13573.5*(z-0)^2))*cos((2*3.141592653589793)*0.0007170000000000001*step)
variable C equal 0
variable Ez atom (0.003*(0.00111849+-0.582074*(x-0)+-789.5*(x-0)^2+2.08274*(y-0)+1408.33*(y-0)^2+-57.5482*(z-0)+153.512*(z-0)^2))*cos((2*3.141592653589793)*0.0007170000000000001*step)
fix 569202603907006 all efield v_Ex v_Ey v_Ez



timestep 1e-09


# Run simulation

run 10000
Generated 0 of 0 mixed pair_coeff terms from geometric mixing rule
WARNING: Proc sub-domain size < neighbor skin, could lead to lost atoms (src/domain.cpp:970)
Per MPI rank memory allocation (min/avg/max) = 5.783 | 5.783 | 5.783 Mbytes
   Step          CPU      
     10000   0            
     20000   1.8083521    
Loop time of 1.80837 on 1 procs for 10000 steps with 50 atoms

98.9% CPU use with 1 MPI tasks x no OpenMP threads

MPI task timing breakdown:
Section |  min time  |  avg time  |  max time  |%varavg| %total
---------------------------------------------------------------
Pair    | 0.13348    | 0.13348    | 0.13348    |   0.0 |  7.38
Neigh   | 0          | 0          | 0          |   0.0 |  0.00
Comm    | 0.0016068  | 0.0016068  | 0.0016068  |   0.0 |  0.09
Output  | 0.10326    | 0.10326    | 0.10326    |   0.0 |  5.71
Modify  | 1.567      | 1.567      | 1.567      |   0.0 | 86.65
Other   |            | 0.003034   |            |       |  0.17

Nlocal:             50 ave          50 max          50 min
Histogram: 1 0 0 0 0 0 0 0 0 0
Nghost:              0 ave           0 max           0 min
Histogram: 1 0 0 0 0 0 0 0 0 0
Neighs:           1225 ave        1225 max        1225 min
Histogram: 1 0 0 0 0 0 0 0 0 0

Total # of neighbors = 1225
Ave neighs/atom = 24.5
Neighbor list builds = 0
Dangerous builds = 0


Total wall time: 0:00:02
