ITEM: TIMESTEP
0
ITEM: NUMBER OF ATOMS
50
ITEM: BOX BOUNDS mm mm mm
-1.0000000000000000e-03 1.0000000000000000e-03
-1.0000000000000000e-03 1.0000000000000000e-03
-1.0000000000000000e-03 1.0000000000000000e-03
ITEM: ATOMS id x y z
1 5.22572e-05 0.000269406 5.50442e-07
2 0.000102472 -0.000200676 9.37887e-05
3 3.45225e-05 3.60857e-05 0.000301887
4 6.04716e-05 2.14376e-05 0.000185151
5 -0.000506267 0.000315866 0.000436906
6 -0.000308609 0.000299948 -0.000793943
7 0.000251204 0.000188543 0.000606581
8 -0.000260744 9.62616e-05 -0.000744603
9 -0.000133717 0.000257163 -0.000431026
10 -0.000561936 0.000377135 0.000485347
11 -9.13857e-06 -1.01332e-05 0.00038336
12 0.000314345 -0.000654428 0.000617502
13 2.89528e-06 -2.64652e-05 -3.01965e-05
14 0.000291624 -0.000365152 0.000856757
15 -0.000522086 0.000581808 -0.000549674
16 -3.4039e-05 0.000576664 -0.000255014
17 4.4803e-06 -3.12683e-05 8.29135e-05
18 0.000198764 -0.000122541 0.000579731
19 7.03397e-05 4.52078e-06 -3.10279e-05
20 -0.000348405 0.000282911 0.00069367
21 0.000404579 -6.99138e-05 -0.000160032
22 0.000186613 0.000238089 1.53211e-06
23 9.66227e-05 0.000169437 2.00193e-05
24 -7.94342e-05 -0.000239086 0.000219556
25 0.00011293 8.04456e-05 -6.34939e-05
26 -0.000557393 -0.000247239 0.000621997
27 0.000182838 3.75401e-05 -0.000137804
28 0.000102486 0.0004761 0.000838459
29 -0.000135062 9.01464e-06 -6.37171e-05
30 -0.000692327 0.000597765 -4.65072e-05
31 3.01443e-07 5.11763e-05 4.14626e-05
32 -0.000214591 -0.000541247 0.000266727
33 -0.000253375 0.000264094 -0.000685046
34 7.00653e-05 -0.000181384 0.000938692
35 -7.72396e-05 0.000795939 0.000465464
36 -0.000128402 0.000159841 -0.000112665
37 -5.33926e-05 -5.54228e-05 -3.62705e-05
38 0.000152849 -1.78839e-05 -0.000252208
39 -0.000161663 0.000793047 0.000479941
40 0.000243826 0.000768108 9.85627e-05
41 -6.49792e-05 -7.28792e-05 -0.000684951
42 -0.000267719 2.46918e-05 7.20967e-05
43 -0.000169149 -0.000434303 -9.8999e-05
44 -6.92365e-05 -0.000264636 -4.01754e-05
45 -0.000416677 -0.000111223 0.000247637
46 -3.57605e-05 0.000197083 0.00066072
47 -0.000121182 0.000630564 9.99957e-05
48 -0.000252775 -0.000278264 0.000878064
49 -0.000204062 8.89548e-05 -0.000513772
50 -0.000288563 -0.000101773 0.000167151
ITEM: TIMESTEP
10
ITEM: NUMBER OF ATOMS
50
ITEM: BOX BOUNDS mm mm mm
-1.0000000000000000e-03 1.0000000000000000e-03
-1.0000000000000000e-03 1.0000000000000000e-03
-1.0000000000000000e-03 1.0000000000000000e-03
ITEM: ATOMS id x y z
1 5.09321e-05 0.000262583 5.43858e-07
2 9.98767e-05 -0.000195593 9.2701e-05
3 3.36485e-05 3.51724e-05 0.000298386
4 5.89409e-05 2.08946e-05 0.000183004
5 -0.000493438 0.000307861 0.000431836
6 -0.000300789 0.000292348 -0.000784733
7 0.000244839 0.000183766 0.000599544
8 -0.000254136 9.38214e-05 -0.000735965
9 -0.000130328 0.000250647 -0.000426026
10 -0.000547698 0.00036758 0.000479717
11 -8.90766e-06 -9.87721e-06 0.000378915
12 0.000306379 -0.000637845 0.000610338
13 2.82293e-06 -2.57962e-05 -2.98484e-05
14 0.000284234 -0.000355899 0.000846817
15 -0.000508856 0.000567065 -0.000543297
16 -3.31764e-05 0.000562052 -0.000252055
17 4.36654e-06 -3.04788e-05 8.1955e-05
18 0.000193727 -0.000119436 0.000573005
19 6.85616e-05 4.40504e-06 -3.06691e-05
20 -0.000339577 0.000275742 0.000685622
21 0.000394328 -6.81427e-05 -0.000158176
22 0.000181888 0.000232058 1.51426e-06
23 9.41753e-05 0.000165145 1.97883e-05
24 -7.74216e-05 -0.000233029 0.00021701
25 0.000110071 7.84091e-05 -6.27593e-05
26 -0.000543268 -0.000240974 0.000614781
27 0.000178208 3.65887e-05 -0.000136207
28 9.98892e-05 0.000464035 0.000828732
29 -0.000131643 8.78649e-06 -6.29798e-05
30 -0.000674783 0.000582618 -4.59677e-05
31 2.92451e-07 4.98831e-05 4.09833e-05
32 -0.000209154 -0.000527532 0.000263633
33 -0.000246954 0.000257402 -0.000677098
34 6.82899e-05 -0.000176788 0.000927801
35 -7.528e-05 0.00077577 0.000460063
36 -0.00012515 0.000155792 -0.000111359
37 -5.20444e-05 -5.40231e-05 -3.58518e-05
38 0.000148976 -1.74316e-05 -0.000249285
39 -0.000157569 0.000772951 0.000474373
40 0.000237648 0.000748644 9.74191e-05
41 -6.33322e-05 -7.1033e-05 -0.000677005
42 -0.000260937 2.40668e-05 7.12602e-05
43 -0.000164863 -0.000423299 -9.78511e-05
44 -6.74823e-05 -0.000257932 -3.97101e-05
45 -0.00040612 -0.000108405 0.000244765
46 -3.48544e-05 0.000192089 0.000653055
47 -0.000118112 0.000614586 9.88355e-05
48 -0.00024637 -0.000271213 0.000867877
49 -0.000198892 8.67001e-05 -0.000507811
50 -0.000281252 -9.9195e-05 0.000165212
ITEM: TIMESTEP
20
ITEM: NUMBER OF ATOMS
50
ITEM: BOX BOUNDS mm mm mm
-1.0000000000000000e-03 1.0000000000000000e-03
-1.0000000000000000e-03 1.0000000000000000e-03
-1.0000000000000000e-03 1.0000000000000000e-03
ITEM: ATOMS id x y z
1 4.70414e-05 0.000242549 5.24321e-07
2 9.22576e-05 -0.000180669 8.94778e-05
3 3.10825e-05 3.24907e-05 0.00028801
4 5.44467e-05 1.93004e-05 0.000176644
5 -0.000455768 0.000284357 0.000416811
6 -0.000277829 0.000270033 -0.000757439
7 0.000226151 0.000169738 0.000578689
8 -0.000234737 8.66567e-05 -0.000710366
9 -0.000120379 0.000231515 -0.000411207
10 -0.000505892 0.000339524 0.000463033
11 -8.22967e-06 -9.12561e-06 0.000365742
12 0.000282991 -0.000589153 0.000589106
13 2.61059e-06 -2.38323e-05 -2.8817e-05
14 0.000262537 -0.000328731 0.00081736
15 -0.000470011 0.000523777 -0.000524398
16 -3.06434e-05 0.000519148 -0.000243288
17 4.03254e-06 -2.81608e-05 7.91146e-05
18 0.00017894 -0.000110319 0.000553074
19 6.33413e-05 4.06514e-06 -2.96061e-05
20 -0.000313654 0.000254692 0.000661773
21 0.000364231 -6.29424e-05 -0.000152675
22 0.000168013 0.000214351 1.46137e-06
23 8.69893e-05 0.000152543 1.91039e-05
24 -7.15123e-05 -0.000215246 0.000209464
25 0.000101676 7.243e-05 -6.05823e-05
26 -0.000501797 -0.000222579 0.000593395
27 0.000164614 3.3795e-05 -0.000131476
28 9.22645e-05 0.000428612 0.000799904
29 -0.000121605 8.11662e-06 -6.07952e-05
30 -0.000623272 0.000538142 -4.43689e-05
31 2.6596e-07 4.60863e-05 3.95633e-05
32 -0.000193188 -0.000487264 0.000254462
33 -0.000228101 0.000237754 -0.000653542
34 6.30769e-05 -0.000163292 0.000895527
35 -6.95258e-05 0.00071655 0.000444058
36 -0.000115601 0.000143905 -0.00010749
37 -4.80862e-05 -4.99136e-05 -3.4611e-05
38 0.000137606 -1.61038e-05 -0.000240622
39 -0.000145548 0.000713946 0.000457873
40 0.000219507 0.000691495 9.403e-05
41 -5.84963e-05 -6.56125e-05 -0.000653456
42 -0.000241024 2.22317e-05 6.87813e-05
43 -0.000152279 -0.00039099 -9.44492e-05
44 -6.23318e-05 -0.000238249 -3.83313e-05
45 -0.000375123 -0.000100131 0.000236252
46 -3.21938e-05 0.000177426 0.00063034
47 -0.000109096 0.000567672 9.53972e-05
48 -0.000227563 -0.00025051 0.000837687
49 -0.00018371 8.00799e-05 -0.000490147
50 -0.000259785 -9.16254e-05 0.000159466
ITEM: TIMESTEP
30
ITEM: NUMBER OF ATOMS
50
ITEM: BOX BOUNDS mm mm mm
-1.0000000000000000e-03 1.0000000000000000e-03
-1.0000000000000000e-03 1.0000000000000000e-03
-1.0000000000000000e-03 1.0000000000000000e-03
ITEM: ATOMS id x y z
1 4.08071e-05 0.000210451 4.92335e-07
2 8.00504e-05 -0.000156758 8.42151e-05
3 2.69712e-05 2.81941e-05 0.00027107
4 4.72461e-05 1.67462e-05 0.00016626
5 -0.000395411 0.000246696 0.000392278
6 -0.000241042 0.000234278 -0.000712873
7 0.000196208 0.000147263 0.000544637
8 -0.000203654 7.51766e-05 -0.000668567
9 -0.000104438 0.000200861 -0.000387011
10 -0.00043891 0.000294571 0.00043579
11 -7.14343e-06 -7.92148e-06 0.000344233
12 0.000245518 -0.000511138 0.000554438
13 2.2708e-06 -2.06859e-05 -2.71332e-05
14 0.000227773 -0.000285201 0.000769261
15 -0.000407773 0.000454418 -0.000493539
16 -2.65849e-05 0.000450406 -0.000228974
17 3.49739e-06 -2.44475e-05 7.44778e-05
18 0.000155248 -9.57131e-05 0.00052053
19 5.49788e-05 3.5202e-06 -2.78707e-05
20 -0.000272121 0.000220966 0.000622833
21 0.000316008 -5.46105e-05 -0.000143694
22 0.000145784 0.00018598 1.375e-06
23 7.54759e-05 0.000132352 1.7987e-05
24 -6.20442e-05 -0.000186752 0.000197144
25 8.82256e-05 6.28507e-05 -5.70286e-05
26 -0.000435351 -0.000193106 0.000558476
27 0.000142834 2.93187e-05 -0.000123751
28 8.00477e-05 0.000371856 0.000752833
29 -0.000105523 7.04346e-06 -5.72288e-05
30 -0.000540738 0.000466881 -4.17584e-05
31 2.23195e-07 4.00038e-05 3.72454e-05
32 -0.000167607 -0.000422745 0.000239489
33 -0.000197894 0.000206272 -0.000615081
34 5.47244e-05 -0.000141669 0.00084283
35 -6.03053e-05 0.000621665 0.000417925
36 -0.000100302 0.000124859 -0.000101173
37 -4.1746e-05 -4.3331e-05 -3.25856e-05
38 0.000119389 -1.39765e-05 -0.000226478
39 -0.000126287 0.000619405 0.000430931
40 0.000190442 0.000599928 8.84962e-05
41 -5.07479e-05 -5.69276e-05 -0.000615006
42 -0.000209119 1.92916e-05 6.47337e-05
43 -0.000132117 -0.000339222 -8.88948e-05
44 -5.40795e-05 -0.000206711 -3.60803e-05
45 -0.000325458 -8.68737e-05 0.000222354
46 -2.79308e-05 0.000153932 0.000593249
47 -9.465e-05 0.000492503 8.97831e-05
48 -0.00019743 -0.000217338 0.000788393
49 -0.000159385 6.94725e-05 -0.000461305
50 -0.00022539 -7.94973e-05 0.000150085
ITEM: TIMESTEP
40
ITEM: NUMBER OF ATOMS
50
ITEM: BOX BOUNDS mm mm mm
-1.0000000000000000e-03 1.0000000000000000e-03
-1.0000000000000000e-03 1.0000000000000000e-03
-1.0000000000000000e-03 1.0000000000000000e-03
ITEM: ATOMS id x y z
1 3.25672e-05 0.000168037 4.48577e-07
2 6.39196e-05 -0.000125161 7.70558e-05
3 2.15386e-05 2.25165e-05 0.000248022
4 3.7731e-05 1.3371e-05 0.000152134
5 -0.000315647 0.000196925 0.000358899
6 -0.000192426 0.000187028 -0.000652241
7 0.000156638 0.000117561 0.000498309
8 -0.000162577 6.00045e-05 -0.0006117
9 -8.33707e-05 0.000160351 -0.000354092
10 -0.000350391 0.000235166 0.000398727
11 -5.70801e-06 -6.33046e-06 0.000314973
12 0.000195996 -0.000408038 0.000507272
13 1.82291e-06 -1.65291e-05 -2.4843e-05
14 0.000181832 -0.000227675 0.000703822
15 -0.000325522 0.000362759 -0.000451555
16 -2.12215e-05 0.000359561 -0.000209499
17 2.7902e-06 -1.95421e-05 6.8172e-05
18 0.000123938 -7.64106e-05 0.000476253
19 4.39318e-05 2.79927e-06 -2.55102e-05
20 -0.000217233 0.000176396 0.000569854
21 0.000252282 -4.36001e-05 -0.000131475
22 0.000116411 0.00014849 1.25743e-06
23 6.02615e-05 0.000105669 1.64689e-05
24 -4.95319e-05 -0.000149098 0.000180382
25 7.04533e-05 5.01932e-05 -5.21961e-05
26 -0.000347539 -0.000154157 0.000510969
27 0.000114052 2.3403e-05 -0.000113243
28 6.3903e-05 0.00029685 0.000688793
29 -8.42737e-05 5.62557e-06 -5.23787e-05
30 -0.000431668 0.000372706 -3.82068e-05
31 1.65897e-07 3.19677e-05 3.40938e-05
32 -0.000133801 -0.000337481 0.000219117
33 -0.000157974 0.000164669 -0.000562754
34 4.36863e-05 -0.000113093 0.000771134
35 -4.81176e-05 0.000496272 0.000382369
36 -8.00858e-05 9.96915e-05 -9.25809e-05
37 -3.33719e-05 -3.46363e-05 -2.98316e-05
38 9.53149e-05 -1.11656e-05 -0.000207237
39 -0.000100837 0.000494466 0.000394277
40 0.000152032 0.000478919 8.09674e-05
41 -4.05077e-05 -4.54507e-05 -0.000562693
42 -0.000166958 1.54067e-05 5.92269e-05
43 -0.000105472 -0.000270811 -8.13386e-05
44 -4.3174e-05 -0.000165036 -3.30183e-05
45 -0.000259826 -6.93546e-05 0.000203445
46 -2.22971e-05 0.000122884 0.000542787
47 -7.55596e-05 0.000393166 8.2145e-05
48 -0.000157608 -0.000173501 0.000721327
49 -0.000127238 5.5454e-05 -0.000422065
50 -0.000179938 -6.34702e-05 0.000137321
ITEM: TIMESTEP
50
ITEM: NUMBER OF ATOMS
50
ITEM: BOX BOUNDS mm mm mm
-1.0000000000000000e-03 1.0000000000000000e-03
-1.0000000000000000e-03 1.0000000000000000e-03
-1.0000000000000000e-03 1.0000000000000000e-03
ITEM: ATOMS id x y z
1 2.27567e-05 0.000117561 3.93678e-07
2 4.47229e-05 -8.75563e-05 6.81857e-05
3 1.50737e-05 1.57595e-05 0.000219463
4 2.64073e-05 9.3543e-06 0.000134632
5 -0.000220705 0.000137683 0.000317534
6 -0.00013456 0.000130788 -0.00057711
7 0.000109539 8.2208e-05 0.0004409
8 -0.000113684 4.19436e-05 -0.000541232
9 -5.82949e-05 0.000112135 -0.0003133
10 -0.000245032 0.000164459 0.000352802
11 -3.99949e-06 -4.43722e-06 0.000278717
12 0.00013705 -0.000285321 0.000448824
13 1.29266e-06 -1.15839e-05 -2.20058e-05
14 0.000127149 -0.000159203 0.000622731
15 -0.000227622 0.000253659 -0.000399529
16 -1.48373e-05 0.000251432 -0.000185368
17 1.94859e-06 -1.37074e-05 6.0364e-05
18 8.66718e-05 -5.3436e-05 0.000421387
19 3.07938e-05 1.93968e-06 -2.2586e-05
20 -0.000151902 0.000123345 0.000504204
21 0.000176434 -3.04958e-05 -0.000116335
22 8.14573e-05 0.000103872 1.11156e-06
23 4.21546e-05 7.39105e-05 1.45918e-05
24 -3.46388e-05 -0.000104283 0.000159614
25 4.93051e-05 3.51316e-05 -4.62135e-05
26 -0.000243019 -0.000107797 0.000452098
27 7.9798e-05 1.63613e-05 -0.000100227
28 4.46866e-05 0.000207573 0.000609436
29 -5.89898e-05 3.93874e-06 -4.63734e-05
30 -0.000301844 0.000260613 -3.3806e-05
31 9.59701e-08 2.2407e-05 3.01927e-05
32 -9.35631e-05 -0.000235996 0.000193874
33 -0.000110458 0.000115151 -0.00049791
34 3.05481e-05 -7.90791e-05 0.000682291
35 -3.36045e-05 0.00034702 0.000338308
36 -5.60258e-05 6.97383e-05 -8.19378e-05
37 -2.34164e-05 -2.42984e-05 -2.64226e-05
38 6.66606e-05 -7.82062e-06 -0.000183397
39 -7.05494e-05 0.000345754 0.000348858
40 0.000106313 0.000334887 7.16378e-05
41 -2.8318e-05 -3.17913e-05 -0.000497868
42 -0.000116779 1.07836e-05 5.24032e-05
43 -7.37587e-05 -0.000189386 -7.19768e-05
44 -3.01942e-05 -0.000115436 -2.92253e-05
45 -0.000181709 -4.85027e-05 0.000180015
46 -1.55914e-05 8.59283e-05 0.000480256
47 -5.28373e-05 0.000274929 7.26802e-05
48 -0.000110209 -0.000121322 0.00063822
49 -8.89754e-05 3.87671e-05 -0.00037344
50 -0.000125839 -4.43947e-05 0.000121505
ITEM: TIMESTEP
60
ITEM: NUMBER OF ATOMS
50
ITEM: BOX BOUNDS mm mm mm
-1.0000000000000000e-03 1.0000000000000000e-03
-1.0000000000000000e-03 1.0000000000000000e-03
-1.0000000000000000e-03 1.0000000000000000e-03
ITEM: ATOMS id x y z
1 1.1881e-05 6.16765e-05 3.26941e-07
2 2.34676e-05 -4.59154e-05 5.7831e-05
3 7.91582e-06 8.27692e-06 0.00018611
4 1.38687e-05 4.9075e-06 0.000114199
5 -0.00011554 7.20595e-05 0.000269218
6 -7.04654e-05 6.84954e-05 -0.000489368
7 5.73735e-05 4.30503e-05 0.000373852
8 -5.9527e-05 2.19334e-05 -0.000458935
9 -3.05188e-05 5.87279e-05 -0.000265659
10 -0.000128336 8.61447e-05 0.000299174
11 -2.10639e-06 -2.34105e-06 0.000236379
12 7.176e-05 -0.000149394 0.000380562
13 7.1312e-07 -6.11201e-06 -1.86889e-05
14 6.6581e-05 -8.33606e-05 0.000528024
15 -0.000119182 0.000132814 -0.000338768
16 -7.7657e-06 0.000131665 -0.000157187
17 1.01695e-06 -7.25251e-06 5.12598e-05
18 4.53945e-05 -2.79902e-05 0.000357309
19 1.62747e-05 9.86576e-07 -1.9171e-05
20 -7.95391e-05 6.45828e-05 0.000427533
21 9.24285e-05 -1.5984e-05 -9.86567e-05
22 4.27651e-05 5.44648e-05 9.40078e-07
23 2.21048e-05 3.87348e-05 1.24117e-05
24 -1.81415e-05 -5.46498e-05 0.000135363
25 2.58956e-05 1.846e-05 -3.92439e-05
26 -0.000127248 -5.64467e-05 0.000383344
27 4.18637e-05 8.56111e-06 -8.50392e-05
28 2.34021e-05 0.000108686 0.000516756
29 -3.10077e-05 2.07298e-06 -3.93738e-05
30 -0.000158045 0.000136453 -2.8667e-05
31 1.43416e-08 1.18241e-05 2.56464e-05
32 -4.89941e-05 -0.00012359 0.000164394
33 -5.78259e-05 6.03048e-05 -0.000422175
34 1.59956e-05 -4.14027e-05 0.000578532
35 -1.75105e-05 0.000181701 0.000286843
36 -2.93843e-05 3.65697e-05 -6.95202e-05
37 -1.24251e-05 -1.28785e-05 -2.24501e-05
38 3.49227e-05 -4.11687e-06 -0.000155564
39 -3.70188e-05 0.000181033 0.000295819
40 5.5675e-05 0.000175351 6.0742e-05
41 -1.48133e-05 -1.66643e-05 -0.00042216
42 -6.12103e-05 5.66491e-06 4.44351e-05
43 -3.86343e-05 -9.92035e-05 -6.10477e-05
44 -1.58191e-05 -6.05099e-05 -2.47984e-05
45 -9.51886e-05 -2.54074e-05 0.000152657
46 -8.1638e-06 4.49938e-05 0.000407227
47 -2.76703e-05 0.000143967 6.1627e-05
48 -5.77081e-05 -6.3527e-05 0.00054116
49 -4.65939e-05 2.02812e-05 -0.000316652
50 -6.59215e-05 -2.3268e-05 0.000103036
ITEM: TIMESTEP
70
ITEM: NUMBER OF ATOMS
50
ITEM: BOX BOUNDS mm mm mm
-1.0000000000000000e-03 1.0000000000000000e-03
-1.0000000000000000e-03 1.0000000000000000e-03
-1.0000000000000000e-03 1.0000000000000000e-03
ITEM: ATOMS id x y z
1 4.33238e-07 3.35624e-06 2.25772e-07
2 1.2769e-06 -2.43072e-06 4.62721e-05
3 4.4123e-07 4.58025e-07 0.000148792
4 7.77217e-07 2.69516e-07 9.13491e-05
5 -5.58131e-06 3.43593e-06 0.000215126
6 -3.44815e-06 3.36976e-06 -0.000391188
7 2.84164e-06 2.11633e-06 0.000298818
8 -2.90118e-06 9.97834e-07 -0.000366841
9 -1.47377e-06 2.88692e-06 -0.000212341
10 -6.33242e-06 4.26299e-06 0.00023918
11 -1.21713e-07 -1.52515e-07 0.00018901
12 3.49532e-06 -7.27469e-06 0.00030417
13 7.37356e-08 -4.21121e-07 -1.48536e-05
14 3.25745e-06 -4.06335e-06 0.000422033
15 -5.79871e-06 6.46086e-06 -0.000270769
16 -3.72566e-07 6.44566e-06 -0.00012566
17 4.50136e-08 -5.07257e-07 4.11124e-05
18 2.23888e-06 -1.39491e-06 0.00028559
19 1.3822e-06 7.43138e-08 -1.53419e-05
20 -3.8863e-06 3.14541e-06 0.000341738
21 4.62667e-06 -8.23103e-07 -7.88992e-05
22 2.45166e-06 2.85832e-06 7.32075e-07
23 1.1639e-06 1.94629e-06 1.00449e-05
24 -8.83053e-07 -2.77241e-06 0.000108238
25 1.48752e-06 1.07216e-06 -3.1525e-05
26 -6.20322e-06 -2.76094e-06 0.0003064
27 2.21079e-06 4.09073e-07 -6.80784e-05
28 1.14832e-06 5.29199e-06 0.000413038
29 -1.84246e-06 1.35729e-07 -3.1613e-05
30 -7.70437e-06 6.64261e-06 -2.29212e-05
31 -8.70871e-08 7.47504e-07 2.05929e-05
32 -2.39542e-06 -6.08089e-06 0.000131414
33 -2.79534e-06 2.97032e-06 -0.000337408
34 7.81323e-07 -2.00543e-06 0.000462422
35 -6.02272e-07 8.85381e-06 0.000229191
36 -1.55616e-06 1.91816e-06 -5.56728e-05
37 -1.16569e-06 -1.07603e-06 -1.80909e-05
38 1.73921e-06 -2.48795e-07 -0.000124437
39 -2.03035e-06 8.80593e-06 0.000236521
40 2.7437e-06 8.56108e-06 4.85546e-05
41 -6.81068e-07 -8.62641e-07 -0.000337427
42 -3.16143e-06 3.14425e-07 3.55302e-05
43 -1.92245e-06 -4.94628e-06 -4.88423e-05
44 -8.05531e-07 -3.18189e-06 -1.9856e-05
45 -4.7464e-06 -1.25724e-06 0.000122055
46 -3.9467e-07 2.1935e-06 0.000325504
47 -1.36816e-06 7.05509e-06 4.92676e-05
48 -2.82133e-06 -3.09801e-06 0.000432537
49 -2.27839e-06 9.45353e-07 -0.000253103
50 -3.29673e-06 -1.18311e-06 8.23709e-05
ITEM: TIMESTEP
80
ITEM: NUMBER OF ATOMS
50
ITEM: BOX BOUNDS mm mm mm
-1.0000000000000000e-03 1.0000000000000000e-03
-1.0000000000000000e-03 1.0000000000000000e-03
-1.0000000000000000e-03 1.0000000000000000e-03
ITEM: ATOMS id x y z
1 -8.50771e-06 -5.49575e-05 -2.60016e-06
2 -2.07487e-05 4.07461e-05 3.4132e-05
3 -6.9821e-06 -7.3063e-06 0.000108465
4 -1.22221e-05 -4.33537e-06 6.66943e-05
5 0.000103565 -6.46787e-05 0.000156512
6 6.30771e-05 -6.12795e-05 -0.000284993
7 -5.12914e-05 -3.85149e-05 0.000217604
8 5.33082e-05 -1.9778e-05 -0.000267201
9 2.73566e-05 -5.25452e-05 -0.000154632
10 0.000114772 -7.70283e-05 0.000174398
11 1.84939e-06 2.02207e-06 0.000137746
12 -6.42658e-05 0.000133796 0.000221534
13 -4.62945e-06 5.03192e-06 -2.1624e-06
14 -5.95996e-05 7.46496e-05 0.000307309
15 0.00010675 -0.000118962 -0.000197208
16 6.96583e-06 -0.000117856 -9.16096e-05
17 -9.23545e-07 6.19556e-06 3.00852e-05
18 -4.0601e-05 2.50066e-05 0.000207877
19 -9.0869e-06 -5.6183e-07 -1.73917e-05
20 7.12105e-05 -5.78397e-05 0.00024897
21 -8.25379e-05 1.42287e-05 -5.77e-05
22 -4.00103e-05 -4.79724e-05 3.11214e-06
23 -1.96224e-05 -3.45901e-05 7.80743e-06
24 1.62489e-05 4.87309e-05 7.89013e-05
25 -2.31877e-05 -1.63313e-05 -2.34818e-05
26 0.000113948 5.05304e-05 0.00022317
27 -3.71619e-05 -7.68181e-06 -4.98161e-05
28 -2.09425e-05 -9.73393e-05 0.000300758
29 2.75618e-05 -1.64906e-06 -2.36159e-05
30 0.000141529 -0.000122207 -1.67703e-05
31 -1.85045e-07 -1.02577e-05 1.5268e-05
32 4.38622e-05 0.000110567 9.58196e-05
33 5.18368e-05 -5.39543e-05 -0.000245647
34 -1.43212e-05 3.7101e-05 0.000336815
35 1.61794e-05 -0.000162722 0.000166448
36 2.60751e-05 -3.24876e-05 -4.08479e-05
37 9.63315e-06 1.07016e-05 -1.46214e-05
38 -3.12029e-05 3.59491e-06 -9.07789e-05
39 3.27091e-05 -0.000162146 0.000172657
40 -4.98015e-05 -0.000157008 3.54114e-05
41 1.3336e-05 1.48361e-05 -0.000245711
42 5.4466e-05 -4.99386e-06 2.57341e-05
43 3.45231e-05 8.86239e-05 -3.57189e-05
44 1.42308e-05 5.36311e-05 -1.53498e-05
45 8.50364e-05 2.27189e-05 8.89615e-05
46 7.31799e-06 -4.02914e-05 0.000237096
47 2.47434e-05 -0.000128849 3.60962e-05
48 5.16608e-05 5.68865e-05 0.000315043
49 4.1712e-05 -1.82455e-05 -0.000184319
50 5.88718e-05 2.07416e-05 5.99493e-05
ITEM: TIMESTEP
90
ITEM: NUMBER OF ATOMS
50
ITEM: BOX BOUNDS mm mm mm
-1.0000000000000000e-03 1.0000000000000000e-03
-1.0000000000000000e-03 1.0000000000000000e-03
-1.0000000000000000e-03 1.0000000000000000e-03
ITEM: ATOMS id x y z
1 -1.64811e-05 -0.000110155 -5.65708e-06
2 -4.15765e-05 8.15493e-05 2.13828e-05
3 -1.40022e-05 -1.46449e-05 6.60628e-05
4 -2.45221e-05 -8.69475e-06 4.07955e-05
5 0.000206389 -0.000128826 9.4823e-05
6 0.000125763 -0.000122208 -0.000173305
7 -0.000102322 -7.68161e-05 0.000132174
8 0.000106269 -3.93202e-05 -0.000162396
9 5.45144e-05 -0.000104783 -9.39271e-05
10 0.00022892 -0.000153638 0.000106278
11 3.70923e-06 4.08675e-06 8.38592e-05
12 -0.000128116 0.000266721 0.0001346
13 -9.38901e-06 1.03457e-05 1.15963e-05
14 -0.000118835 0.000148818 0.00018662
15 0.000212791 -0.000237133 -0.000119823
16 1.38813e-05 -0.000234997 -5.58019e-05
17 -1.83002e-06 1.2565e-05 1.85853e-05
18 -8.09772e-05 4.99012e-05 0.000126126
19 -1.89657e-05 -1.34252e-06 -1.99308e-05
20 0.000141978 -0.000115303 0.000151391
21 -0.000164732 2.8435e-05 -3.54222e-05
22 -8.05993e-05 -9.59027e-05 5.66793e-06
23 -3.92492e-05 -6.90438e-05 5.51938e-06
24 3.23831e-05 9.73088e-05 4.80648e-05
25 -4.66591e-05 -3.28429e-05 -1.50959e-05
26 0.000227166 0.000100749 0.000135613
27 -7.43256e-05 -1.53061e-05 -3.06629e-05
28 -4.17599e-05 -0.000194042 0.000182646
29 5.55262e-05 -3.32018e-06 -1.52782e-05
30 0.00028216 -0.000243626 -1.03033e-05
31 -2.35845e-07 -2.06865e-05 9.71751e-06
32 8.74501e-05 0.000220511 5.83837e-05
33 0.000103317 -0.000107629 -0.000149101
34 -2.85528e-05 7.39412e-05 0.000204687
35 3.18468e-05 -0.00032439 0.000100388
36 5.21732e-05 -6.49754e-05 -2.53121e-05
37 2.0092e-05 2.20021e-05 -1.10961e-05
38 -6.22578e-05 7.24441e-06 -5.54242e-05
39 6.55622e-05 -0.000323221 0.000105533
40 -9.9354e-05 -0.000313042 2.15876e-05
41 2.65093e-05 2.96759e-05 -0.00014923
42 0.000108873 -1.00085e-05 1.54429e-05
43 6.88872e-05 0.000176857 -2.19405e-05
44 2.84403e-05 0.000107369 -1.06015e-05
45 0.000169685 4.53119e-05 5.41702e-05
46 1.45809e-05 -8.03224e-05 0.000144102
47 4.9383e-05 -0.000256927 2.22425e-05
48 0.000103005 0.000113406 0.00019144
49 8.31611e-05 -3.63073e-05 -0.000111966
50 0.000117496 4.14206e-05 3.63724e-05
ITEM: TIMESTEP
100
ITEM: NUMBER OF ATOMS
50
ITEM: BOX BOUNDS mm mm mm
-1.0000000000000000e-03 1.0000000000000000e-03
-1.0000000000000000e-03 1.0000000000000000e-03
-1.0000000000000000e-03 1.0000000000000000e-03
ITEM: ATOMS id x y z
1 -2.35366e-05 -0.000159283 -8.56034e-06
2 -6.01217e-05 0.000117863 8.26902e-06
3 -2.02533e-05 -2.12112e-05 2.26262e-05
4 -3.55287e-05 -1.25782e-05 1.42381e-05
5 0.000297747 -0.000185804 3.15452e-05
6 0.000181486 -0.000176369 -5.87471e-05
7 -0.000147689 -0.000110859 4.45494e-05
8 0.000153343 -5.66686e-05 -5.49041e-05
9 7.86436e-05 -0.00015122 -3.16654e-05
10 0.00033038 -0.000221737 3.6391e-05
11 5.39195e-06 5.94705e-06 2.86411e-05
12 -0.000184854 0.00038484 4.54167e-05
13 -1.38205e-05 1.51007e-05 2.49005e-05
14 -0.000171479 0.000214729 6.282e-05
15 0.000307019 -0.00034214 -4.04403e-05
16 2.0022e-05 -0.0003391 -1.90689e-05
17 -2.44923e-06 1.83455e-05 6.86467e-06
18 -0.000116875 7.20341e-05 4.22866e-05
19 -2.78122e-05 -2.03447e-06 -2.20661e-05
20 0.000204865 -0.000166366 5.1293e-05
21 -0.000237804 4.10695e-05 -1.25541e-05
22 -0.000116754 -0.000138541 8.06814e-06
23 -5.67136e-05 -9.97021e-05 3.13867e-06
24 4.67272e-05 0.000140511 1.64447e-05
25 -6.75762e-05 -4.75627e-05 -6.46714e-06
26 0.000327778 0.000145379 4.57952e-05
27 -0.000107432 -2.20838e-05 -1.10149e-05
28 -6.02628e-05 -0.000279976 6.14937e-05
29 8.04557e-05 -4.80659e-06 -6.69361e-06
30 0.000407126 -0.000351517 -3.66287e-06
31 -2.3781e-07 -3.00464e-05 3.99882e-06
32 0.000126186 0.000318225 1.99734e-05
33 0.000149054 -0.000155332 -5.00672e-05
34 -4.12007e-05 0.000106682 6.91559e-05
35 4.57142e-05 -0.000468051 3.26612e-05
36 7.53966e-05 -9.38826e-05 -9.35891e-06
37 2.94784e-05 3.21357e-05 -7.39541e-06
38 -8.98818e-05 1.05219e-05 -1.91961e-05
39 9.48061e-05 -0.000466352 3.66451e-05
40 -0.000143395 -0.000451697 7.40083e-06
41 3.82079e-05 4.28809e-05 -5.02811e-05
42 0.000157267 -1.44769e-05 4.89936e-06
43 9.94319e-05 0.000255289 -7.80235e-06
44 4.10741e-05 0.000155177 -5.67532e-06
45 0.000244939 6.53966e-05 1.84801e-05
46 2.10368e-05 -0.000115903 4.87201e-05
47 7.12831e-05 -0.000370745 8.01182e-06
48 0.000148634 0.000163636 6.46488e-05
49 0.00012 -5.23459e-05 -3.7753e-05
50 0.000169614 5.98168e-05 1.2195e-05
ITEM: TIMESTEP
110
ITEM: NUMBER OF ATOMS
50
ITEM: BOX BOUNDS mm mm mm
-1.0000000000000000e-03 1.0000000000000000e-03
-1.0000000000000000e-03 1.0000000000000000e-03
-1.0000000000000000e-03 1.0000000000000000e-03
ITEM: ATOMS id x y z
1 -2.9335e-05 -0.000199893 -1.12423e-05
2 -7.54632e-05 0.000147884 -4.91147e-06
3 -2.54035e-05 -2.6715e-05 -2.08272e-05
4 -4.47473e-05 -1.57791e-05 -1.23774e-05
5 0.000373133 -0.000232806 -3.1833e-05
6 0.000227495 -0.00022109 5.60159e-05
7 -0.000185158 -0.00013896 -4.32232e-05
8 0.000192225 -7.0982e-05 5.27676e-05
9 9.85542e-05 -0.000189568 3.07022e-05
10 0.000414133 -0.000277952 -3.36393e-05
11 6.86636e-06 7.46874e-06 -2.66226e-05
12 -0.000231678 0.000482318 -4.39304e-05
13 -1.76173e-05 1.90882e-05 3.75865e-05
14 -0.000214931 0.000269128 -6.11992e-05
15 0.000384778 -0.000428797 3.9086e-05
16 2.50824e-05 -0.000425015 1.77346e-05
17 -2.87117e-06 2.3245e-05 -4.96335e-06
18 -0.000146528 9.03156e-05 -4.16878e-05
19 -3.51883e-05 -2.59831e-06 -2.37555e-05
20 0.000256774 -0.000208508 -4.8987e-05
21 -0.000298134 5.15041e-05 1.03745e-05
22 -0.000146662 -0.000173771 1.02557e-05
23 -7.11477e-05 -0.000125041 7.09929e-07
24 5.85843e-05 0.000176161 -1.52129e-05
25 -8.48973e-05 -5.97599e-05 2.21362e-06
26 0.000410815 0.000182214 -4.41873e-05
27 -0.000134831 -2.76888e-05 8.68654e-06
28 -7.5539e-05 -0.000350898 -5.98717e-05
29 0.000101094 -6.0318e-06 1.95738e-06
30 0.000510257 -0.000440553 2.9966e-06
31 -1.7247e-07 -3.78648e-05 -1.77603e-06
32 0.000158157 0.000398881 -1.85151e-05
33 0.00018679 -0.000194705 4.9136e-05
34 -5.16362e-05 0.000133713 -6.66082e-05
35 5.71157e-05 -0.000586611 -3.51476e-05
36 9.45834e-05 -0.000117767 6.65294e-06
37 3.73104e-05 4.05685e-05 -3.57803e-06
38 -0.000112716 1.32672e-05 1.70922e-05
39 0.000118978 -0.000584472 -3.24023e-05
40 -0.000179748 -0.000566123 -6.81645e-06
41 4.78865e-05 5.3827e-05 4.88136e-05
42 0.00019725 -1.81632e-05 -5.64625e-06
43 0.000124644 0.000320036 6.37134e-06
44 5.14936e-05 0.000194716 -6.97023e-07
45 0.000307071 8.19782e-05 -1.72811e-05
46 2.63669e-05 -0.000145285 -4.68221e-05
47 8.93646e-05 -0.00046468 -6.26163e-06
48 0.000186298 0.000205097 -6.23697e-05
49 0.000150402 -6.55779e-05 3.65882e-05
50 0.000212646 7.50169e-05 -1.2022e-05
ITEM: TIMESTEP
120
ITEM: NUMBER OF ATOMS
50
ITEM: BOX BOUNDS mm mm mm
-1.0000000000000000e-03 1.0000000000000000e-03
-1.0000000000000000e-03 1.0000000000000000e-03
-1.0000000000000000e-03 1.0000000000000000e-03
ITEM: ATOMS id x y z
1 -3.35953e-05 -0.000230003 -1.36383e-05
2 -8.68511e-05 0.000170147 -1.78417e-05
3 -2.91934e-05 -3.08854e-05 -6.3398e-05
4 -5.1727e-05 -1.81809e-05 -3.84076e-05
5 0.000428893 -0.000267557 -9.38438e-05
6 0.00026155 -0.000254196 0.000168345
7 -0.000212905 -0.000159754 -0.000129127
8 0.000221022 -8.15674e-05 0.000158157
9 0.000113281 -0.00021796 9.17417e-05
10 0.000476111 -0.000319553 -0.000102194
11 8.03233e-06 8.58072e-06 -8.07612e-05
12 -0.000266315 0.000554425 -0.000131371
13 -2.05004e-05 2.20899e-05 4.93351e-05
14 -0.000247081 0.000309376 -0.000182567
15 0.000442296 -0.0004929 0.000116917
16 2.88185e-05 -0.000488573 5.37633e-05
17 -3.156e-06 2.6988e-05 -1.65507e-05
18 -0.000168491 0.000103856 -0.000123865
19 -4.07192e-05 -2.94342e-06 -2.49395e-05
20 0.000295186 -0.000239683 -0.000147139
21 -0.000342791 5.9231e-05 3.28355e-05
22 -0.000168864 -0.000199874 1.21891e-05
23 -8.1847e-05 -0.000143822 -1.70877e-06
24 6.73808e-05 0.000202511 -4.62184e-05
25 -9.77735e-05 -6.88336e-05 1.07604e-05
26 0.000472246 0.000209467 -0.000132251
27 -0.000155176 -3.1846e-05 2.79931e-05
28 -8.6846e-05 -0.000403366 -0.000178644
29 0.000116431 -6.9372e-06 1.04758e-05
30 0.000586549 -0.000506415 9.52018e-06
31 -5.49886e-08 -4.3742e-05 -7.43467e-06
32 0.00018181 0.000458563 -5.61924e-05
33 0.000214697 -0.000223836 0.000146217
34 -5.93524e-05 0.000153721 -0.00019949
35 6.55046e-05 -0.000674317 -0.000101468
36 0.000108799 -0.000135463 2.23502e-05
37 4.32012e-05 4.68832e-05 2.75273e-07
38 -0.000129643 1.53358e-05 5.26334e-05
39 0.000136901 -0.000671849 -0.000100012
40 -0.000206648 -0.00065077 -2.07342e-05
41 5.50738e-05 6.19759e-05 0.000145813
42 0.000226873 -2.08873e-05 -1.59604e-05
43 0.0001433 0.000367953 2.02582e-05
44 5.91885e-05 0.000224071 4.26378e-06
45 0.000353061 9.42507e-05 -5.22865e-05
46 3.03117e-05 -0.000167036 -0.000140338
47 0.000102749 -0.000534173 -2.02484e-05
48 0.000214168 0.000235777 -0.000186683
49 0.000172889 -7.53622e-05 0.000109345
50 0.0002445 8.6279e-05 -3.57203e-05
ITEM: TIMESTEP
130
ITEM: NUMBER OF ATOMS
50
ITEM: BOX BOUNDS mm mm mm
-1.0000000000000000e-03 1.0000000000000000e-03
-1.0000000000000000e-03 1.0000000000000000e-03
-1.0000000000000000e-03 1.0000000000000000e-03
ITEM: ATOMS id x y z
1 -3.61141e-05 -0.00024819 -1.56948e-05
2 -9.3738e-05 0.000183592 -3.02283e-05
3 -3.14594e-05 -3.34831e-05 -0.000104123
4 -5.60887e-05 -1.9677e-05 -6.33083e-05
5 0.000462397 -0.000288421 -0.000153064
6 0.000282044 -0.000274121 0.000275665
7 -0.000229613 -0.000172263 -0.000211191
8 0.00023836 -8.79198e-05 0.000258845
9 0.000122129 -0.000235051 0.000150053
10 0.000513391 -0.000344577 -0.000167702
11 8.7976e-06 9.25784e-06 -0.000132524
12 -0.000287134 0.000597765 -0.000214897
13 -2.23218e-05 2.39532e-05 5.98522e-05
14 -0.000266414 0.000333573 -0.0002985
15 0.000476864 -0.000531427 0.000191266
16 3.10569e-05 -0.000526781 8.81914e-05
17 -3.27149e-06 2.93547e-05 -2.76372e-05
18 -0.000181719 0.000112011 -0.000202362
19 -4.41299e-05 -3.07987e-06 -2.55095e-05
20 0.000318283 -0.000258423 -0.000240911