ITEM: TIMESTEP
0
ITEM: NUMBER OF ATOMS
50
ITEM: BOX BOUNDS mm mm mm
-1.0000000000000000e-03 1.0000000000000000e-03
-1.0000000000000000e-03 1.0000000000000000e-03
-1.0000000000000000e-03 1.0000000000000000e-03
ITEM: ATOMS id f_8953476861[1] f_8953476861[2] f_8953476861[3]
1 0 0 0
2 0 0 0
3 0 0 0
4 0 0 0
5 0 0 0
6 0 0 0
7 0 0 0
8 0 0 0
9 0 0 0
10 0 0 0
11 0 0 0
12 0 0 0
13 0 0 0
14 0 0 0
15 0 0 0
16 0 0 0
17 0 0 0
18 0 0 0
19 0 0 0
20 0 0 0
21 0 0 0
22 0 0 0
23 0 0 0
24 0 0 0
25 0 0 0
26 0 0 0
27 0 0 0
28 0 0 0
29 0 0 0
30 0 0 0
31 0 0 0
32 0 0 0
33 0 0 0
34 0 0 0
35 0 0 0
36 0 0 0
37 0 0 0
38 0 0 0
39 0 0 0
40 0 0 0
41 0 0 0
42 0 0 0
43 0 0 0
44 0 0 0
45 0 0 0
46 0 0 0
47 0 0 0
48 0 0 0
49 0 0 0
50 0 0 0
ITEM: TIMESTEP
200
ITEM: NUMBER OF ATOMS
50
ITEM: BOX BOUNDS mm mm mm
-1.0000000000000000e-03 1.0000000000000000e-03
-1.0000000000000000e-03 1.0000000000000000e-03
-1.0000000000000000e-03 1.0000000000000000e-03
ITEM: ATOMS id f_8953476861[1] f_8953476861[2] f_8953476861[3]
1 74.2398 506.964 7.93824
2 191.393 -375.089 -31.5369
3 64.2896 68.0353 -97.9676
4 113.925 40.0806 -60.5446
5 -946.532 590.574 -139.498
6 -577.08 560.838 255.559
7 469.713 352.487 -194.793
8 -487.709 180.139 239.444
9 -249.997 480.888 138.449
10 -1050.42 704.966 -156.724
11 -17.6748 -18.8014 -124.268
12 587.665 -1223.43 -198.219
13 45.288 -48.5093 -14.9763
14 545.193 -682.675 -274.892
15 -976.002 1087.67 176.503
16 -63.6089 1078.04 82.2981
17 7.10964 -59.0862 -28.1083
18 371.731 -229.115 -185.907
19 89.1219 6.85154 28.8673
20 -651.363 528.898 -223.099
21 756.177 -130.617 52.2785
22 372.184 440.691 -7.9343
23 180.366 317.083 -8.21893
24 -148.676 -446.606 -71.0849
25 215.451 151.773 22.5216
26 -1042.07 -462.199 -199.766
27 341.984 70.2841 45.5418
28 191.619 890.089 -269.088
29 -256.402 15.2873 22.7988
30 -1294.31 1117.5 15.1848
31 0.59495 95.8707 -14.3895
32 -401.171 -1011.77 -86.0334
33 -473.822 493.879 219.552
34 130.964 -339.224 -301.623
35 -145.019 1487.98 -147.866
36 -239.835 298.641 37.5531
37 -95.1116 -103.01 16.4162
38 285.959 -33.7166 82.2739
39 -301.65 1482.56 -155.48
40 455.953 1436.01 -31.7819
41 -121.615 -136.684 220.025
42 -500.297 45.9944 -22.8011
43 -316.141 -811.738 32.4706
44 -130.552 -494.137 15.771
45 -778.851 -207.923 -79.9234
46 -66.885 368.579 -212.434
47 -226.711 1178.66 -32.7468
48 -472.581 -520.264 -282.032
49 -381.468 166.386 165.008
50 -539.362 -190.271 -53.6629
ITEM: TIMESTEP
400
ITEM: NUMBER OF ATOMS
50
ITEM: BOX BOUNDS mm mm mm
-1.0000000000000000e-03 1.0000000000000000e-03
-1.0000000000000000e-03 1.0000000000000000e-03
-1.0000000000000000e-03 1.0000000000000000e-03
ITEM: ATOMS id f_8953476861[1] f_8953476861[2] f_8953476861[3]
1 -42.7947 -289.99 7.9674
2 -107.645 214.266 45.523
3 -36.0719 -40.6966 123.013
4 -68.2124 -23.285 77.6634
5 529.418 -329.658 169.812
6 323.749 -314.744 -318.39
7 -263.987 -197.664 241.001
8 273.712 -99.8787 -297.615
9 139.656 -270.077 -171.361
10 589.337 -394.091 198.605
11 12.0257 11.073 155.226
12 -329.26 684.914 246.084
13 -26.0956 28.1806 -5.44595
14 -305.429 382.24 340.264
15 546.248 -608.745 -218.591
16 35.6757 -605.178 -104.626
17 -5.2773 33.9892 38.8077
18 -208.992 128.782 228.953
19 -53.6472 -0.397174 -28.3192
20 364.808 -296.022 277.977
21 -424.907 73.7368 -68.6536
22 -212.716 -251.665 -12.9995
23 -98.4745 -178.828 -3.33464
24 83.5877 250.931 89.0586
25 -241.152 -91.5102 -408.712
26 583.769 258.738 248.532
27 -195.835 -37.6917 -53.2769
28 -107.453 -498.217 332.96
29 262.94 -2.53411 352.574
30 724.532 -625.389 -20.0192
31 1.34273 -57.7051 18.0674
32 224.691 567.157 108.244
33 269.326 -279.806 -272.058
34 -73.2984 190.026 374.752
35 76.7149 -834.022 188.562
36 135.725 -168.997 -48.9143
37 55.9507 61.3713 -15.8911
38 -161.542 21.991 -102.552
39 172.327 -829.387 186.421
40 -258.763 -805.776 43.331
41 63.6874 81.059 -271.709
42 283.786 -24.3879 25.7512
43 177.396 455.91 -41.0844
44 74.7782 282.917 -8.22752
45 437.513 116.66 99.935
46 37.4265 -206.7 264.079
47 130.415 -658.726 42.1728
48 264.758 291.397 350.335
49 213.391 -93.6927 -204.2
50 303.11 107.479 65.3731
ITEM: TIMESTEP
600
ITEM: NUMBER OF ATOMS
50
ITEM: BOX BOUNDS mm mm mm
-1.0000000000000000e-03 1.0000000000000000e-03
-1.0000000000000000e-03 1.0000000000000000e-03
-1.0000000000000000e-03 1.0000000000000000e-03
ITEM: ATOMS id f_8953476861[1] f_8953476861[2] f_8953476861[3]
1 -51.0243 -312.666 -8.54005
2 -112.615 235.969 -50.1384
3 -39.8583 -39.0916 -140.585
4 -64.4693 -22.7727 -88.2193
5 590.976 -369.745 -194.363
6 358.69 -348.371 363.247
7 -291.237 -219.881 -275.023
8 300.041 -122.551 339.51
9 155.953 -298.733 195.664
10 653.044 -436.314 -225.569
11 9.28897 11.2663 -177.643
12 -367.586 764.451 -280.584
13 -21.9177 9.33501 18.8743
14 -339.446 425.372 -388.312
15 608.587 -678.079 249.37
16 40.8183 -676.527 118.909
17 -13.4612 28.3047 -43.5256
18 -230.22 141.802 -261.774
19 -33.5583 0.847712 21.7466
20 405.629 -329.745 -316.882
21 -469.376 80.7815 77.387
22 -229.143 -274.804 14.9101
23 -104.426 -196.188 0.971016
24 91.9203 277.426 -101.67
25 -256.821 -88.835 362.434
26 650.899 287.713 -283.362
27 -211.126 -40.8988 61.2172
28 -119.133 -554.703 -380.057
29 284.909 -5.01442 -300.335
30 808.616 -702.239 22.6997
31 -7.00515 -53.6288 -19.6661
32 249.955 629.541 -123.068
33 312.136 -313.928 310.277
34 -81.6604 211.101 -427.417
35 96.2839 -928.826 -214.635
36 147.606 -184.97 55.0426
37 33.4069 76.042 16.8373
38 -177.713 24.5401 117.39
39 181.852 -923.534 -213.455
40 -292.042 -902.197 -48.792
41 59.1623 90.0252 310.463
42 309.435 -25.3725 -30.0918
43 196.59 504.721 46.6234
44 83.3305 306.441 10.0839
45 483.33 129.038 -113.911
46 41.2599 -229.403 -301.3
47 149.151 -731.446 -47.2185
48 294.177 323.935 -399.518
49 237.523 -105.2 233.088
50 334.788 117.362 -74.9626
ITEM: TIMESTEP
800
ITEM: NUMBER OF ATOMS
50
ITEM: BOX BOUNDS mm mm mm
-1.0000000000000000e-03 1.0000000000000000e-03
-1.0000000000000000e-03 1.0000000000000000e-03
-1.0000000000000000e-03 1.0000000000000000e-03
ITEM: ATOMS id f_8953476861[1] f_8953476861[2] f_8953476861[3]
1 55.7819 355.25 7.15108
2 147.951 -230.132 46.5863
3 43.6399 51.2821 154.698
4 84.5661 27.4615 100.288
5 -638.252 398.929 205.519
6 -391.919 380.907 -397.441
7 292.656 244.41 370.425
8 -327.873 131.234 -370.066
9 -168.502 327.258 -212.041
10 -712.057 475.136 246.585
11 -15.7729 -13.8021 196.053
12 411.382 -838.914 302.003
13 12.0684 -4.05436 -34.9398
14 369.25 -462.189 421.431
15 -659.863 735.311 -271.742
16 10.5308 797.266 -94.2014
17 20.6754 -38.7074 52.7929
18 252.686 -155.61 282.616
19 34.147 -5.65746 -17.5289
20 -441.033 357.994 346.473
21 513.888 -89.0616 -88.5564
22 258.482 304.973 -17.6191
23 110.214 214.915 -0.679297
24 -100.938 -303.29 111.636
25 286.934 100.971 -318.014
26 -692.742 -308.085 240.391
27 236.564 44.3747 -65.4507
28 129.934 602.25 412.134
29 -312.552 4.35416 248.922
30 -879.811 760.458 -26.9318
31 9.75587 68.0342 23.7533
32 -271.92 -685.732 135.992
33 -348.271 337.296 -333.781
34 88.6119 -229.73 465.833
35 -97.2925 1007.95 230.448
36 -163.677 204.206 -63.5355
37 -43.0335 -94.2598 -19.1698
38 141.82 -92.4781 -167.932
39 -204.949 1001.77 239.856
40 318.836 979.853 53.2477
41 -54.1267 -97.7456 -339.154
42 -366.247 -10.356 43.577
43 -202.331 -559.296 -52.1193
44 -90.7565 -342.22 -18.0792
45 -528.862 -140.855 124.88
46 -44.9692 250.295 328.757
47 -162.956 794.25 59.4534
48 -320.033 -352.281 435.489
49 -259.539 111.286 -253.854
50 -366.41 -130.632 78.9898
ITEM: TIMESTEP
1000
ITEM: NUMBER OF ATOMS
50
ITEM: BOX BOUNDS mm mm mm
-1.0000000000000000e-03 1.0000000000000000e-03
-1.0000000000000000e-03 1.0000000000000000e-03
-1.0000000000000000e-03 1.0000000000000000e-03
ITEM: ATOMS id f_8953476861[1] f_8953476861[2] f_8953476861[3]
1 26.2889 126.529 -4.65918
2 49.2808 -81.5443 -46.98
3 15.2912 3.86772 -154.555
4 8.89844 10.7436 -105.249
5 -260.605 165.296 -217.142
6 -153.8 148.371 414.846
7 113.288 96.8442 -380.605
8 -129.163 55.3849 387.45
9 -68.9251 128.532 222.176
10 -282.413 187.868 -256.078
11 4.55618 -0.757547 -203.903
12 166.223 -339.126 -316.186
13 21.9877 -16.6493 42.2344
14 147.965 -186.067 -441.131
15 -267.264 297.549 284.203
16 2.95315 321.006 104.065
17 12.9268 7.43913 -54.4435
18 97.8487 -60.2833 -296.825
19 -3.84595 3.66207 5.84891
20 -176.824 144.175 -361.875
21 201.224 -33.8511 89.8302
22 84.5784 103.561 16.1278
23 36.1554 82.5981 -0.327134
24 -37.7885 -118.84 -116.718
25 107.095 38.3532 275.711
26 -278.868 -123.552 -258.956
27 79.9396 15.4278 68.2029
28 51.6995 243.153 -431.98
29 -121.282 4.70869 -204.885
30 -369.347 318.39 27.5223
31 17.8418 4.59341 -24.6896
32 -109.452 -273.552 -140.874
33 -143.559 136.101 351.078
34 35.8921 -91.7603 -486.911
35 -53.7243 407.094 -255.956
36 -55.6317 78.0866 62.4338
37 -1.52288 -17.4958 15.1576
38 52.1387 -30.8604 168.007
39 -69.9193 405.312 -235.932
40 126.738 395.871 -55.2503
41 -19.4576 -33.3551 354.928
42 -135.892 -6.23407 -45.8668
43 -80.1374 -220.86 53.2697
44 -31.191 -113.238 23.2254
45 -206.809 -55.4455 -129.764
46 -18.0094 98.8718 -344.31
47 -64.8682 319.649 -59.5795
48 -128.131 -141.355 -455.271
49 -105.069 46.899 265.848
50 -143.5 -48.5951 -82.6411
ITEM: TIMESTEP
1200
ITEM: NUMBER OF ATOMS
50
ITEM: BOX BOUNDS mm mm mm
-1.0000000000000000e-03 1.0000000000000000e-03
-1.0000000000000000e-03 1.0000000000000000e-03
-1.0000000000000000e-03 1.0000000000000000e-03
ITEM: ATOMS id f_8953476861[1] f_8953476861[2] f_8953476861[3]
1 -81.2716 -327.233 9.17958
2 -133.907 215.48 41.4772
3 -46.8104 -69.9085 161.765
4 -84.852 -14.609 110.209
5 617.868 -386.93 219.038
6 375.881 -365.057 -427.545
7 -278.423 -232.588 385.721
8 314.989 -127.186 -397.72
9 163.766 -313.204 -228.557
10 679.966 -452.099 265.654
11 17.5017 16.246 209.674
12 -394.501 804.925 324.949
13 -54.6039 41.6888 -54.9052
14 -354.585 444.273 450.653
15 633.87 -706.202 -291.496
16 -10.4336 -766.395 -112.185
17 -26.6906 30.3656 55.2485
18 -242.899 148.869 302.383
19 -2.3327 -5.34381 12.8717
20 423.19 -343.655 373.944
21 -492.173 85.0763 -96.9686
22 -224.3 -274.968 -29.1776
23 -69.333 -205.942 3.07442
24 97.1416 294.42 119.631
25 -273.28 -98.5584 -237.912
26 663.488 296.095 268.318
27 -212.068 -27.7236 -69.605
28 -125.119 -579.264 440.727
29 296.535 -10.5287 165.579
30 877.818 -755.101 -28.3262
31 -17.5262 -58.7794 25.7401
32 263.253 657.877 145.744
33 338.577 -321.05 -360.002
34 -85.2492 221.817 499.755
35 103.049 -969.99 265.404
36 141.618 -196.712 -68.6652
37 20.8063 74.9737 -17.1929
38 -135.37 86.8271 -171.628
39 187.793 -960.148 237.562
40 -303.839 -941.569 60.3941
41 49.6057 91.0846 -360.213
42 348.242 21.3635 46.9966
43 189.422 536.927 -53.0769
44 72.2995 292.986 -26.8365
45 505.873 134.937 134.212
46 43.6482 -239.902 351.771
47 154.187 -760.908 63.9577
48 307.228 338.932 467.422
49 250.442 -105.954 -272.083
50 351.02 127.712 84.8761
ITEM: TIMESTEP
1400
ITEM: NUMBER OF ATOMS
50
ITEM: BOX BOUNDS mm mm mm
-1.0000000000000000e-03 1.0000000000000000e-03
-1.0000000000000000e-03 1.0000000000000000e-03
-1.0000000000000000e-03 1.0000000000000000e-03
ITEM: ATOMS id f_8953476861[1] f_8953476861[2] f_8953476861[3]
1 2.39239 29.4271 -4.46776
2 15.2378 -21.6852 -41.262
3 14.0666 21.3785 -158.529
4 25.8137 3.85209 -103.164
5 -2.26247 -2.69512 -217.664
6 -11.186 14.7749 422.783
7 10.3998 4.46373 -378.823
8 -8.97169 -2.56419 395.684
9 -0.398452 9.69649 230.237
10 -15.2724 9.9758 -283.783
11 -16.7448 -4.3914 -215.254
12 3.19273 -6.21633 -324.047
13 4.69 -21.2085 60.289
14 5.34192 -5.46969 -449.462
15 -4.22846 5.16318 290.007
16 2.45003 8.44095 112.365
17 -0.2472 -21.2989 -35.768
18 11.9097 -6.47544 -283.596
19 -14.3961 9.45658 -23.567
20 -6.19803 3.38853 -371.979
21 14.9103 -3.74454 91.3339
22 21.2475 18.0181 34.3756
23 4.04268 9.87655 -5.76485
24 -5.88106 -17.3596 -119.865
25 12.9336 3.40336 199.476
26 -7.70093 -4.41607 -272.508
27 24.1851 -0.523648 51.716
28 2.73509 6.09551 -441.99
29 -7.16121 -1.73212 -127.979
30 -6.90472 4.96613 27.2572
31 4.21297 29.5246 -17.2721
32 -3.44743 -11.7268 -142.918
33 1.46024 0.0321577 362.129
34 1.11327 -5.52787 -496.767
35 -13.1123 19.3218 -257.15
36 -11.2719 10.6443 59.231
37 -14.9735 -28.0553 7.74155
38 12.6326 -11.5063 165.345
39 12.3679 -3.61856 -243.602
40 5.51011 8.07522 -61.9913
41 -4.08586 -10.4785 358.473
42 -19.074 2.51911 -45.8127
43 -3.63119 -13.5169 51.265
44 -0.161206 -16.1881 27.9841
45 -15.8029 -3.82217 -131.765
46 -1.32505 6.36567 -351.42
47 -3.71876 8.27941 -62.7689
48 -4.80363 -5.23362 -465.39
49 -1.94913 -2.88173 269.994
50 -11.1031 -11.102 -83.8854
ITEM: TIMESTEP
1600
ITEM: NUMBER OF ATOMS
50
ITEM: BOX BOUNDS mm mm mm
-1.0000000000000000e-03 1.0000000000000000e-03
-1.0000000000000000e-03 1.0000000000000000e-03
-1.0000000000000000e-03 1.0000000000000000e-03
ITEM: ATOMS id f_8953476861[1] f_8953476861[2] f_8953476861[3]
1 69.3112 248.667 -2.05447
2 95.6835 -167.526 42.5986
3 44.7233 11.7103 153.614
4 41.4448 50.0379 92.8009
5 -507.184 318.963 215.977
6 -304.997 295.2 -416.983
7 218.453 188.783 369.925
8 -257.151 106.378 -391.069
9 -134.689 255.019 -226.98
10 -624.904 400.276 279.675
11 -7.2386 -1.13621 212.05
12 322.697 -657.785 319.252
13 30.9448 -46.4167 -64.6361
14 291.071 -362.627 443.149
15 -518.376 577.237 -285.876
16 12.204 629.678 -114.549
17 33.6637 17.5891 26.6564
18 269.572 -154.187 278.405
19 -6.18862 18.1283 30.7898
20 -345.558 281.739 367.637
21 401.438 -68.7673 -91.046
22 168.23 229.582 -32.0245
23 42.0908 164 4.12291
24 -72.3529 -242.576 118.754
25 216.41 77.0232 -166.189
26 -542.742 -241.527 273.61
27 169.777 8.47724 -49.9001
28 107.105 473.256 435.864
29 -240.999 19.5763 95.4657
30 -718.884 617.505 -26.3787
31 33.1598 -0.278389 34.5942
32 -216.863 -537.278 141.352
33 -283.12 261.008 -357.758
34 69.9058 -182.572 490.099
35 -142.818 808.884 254.002
36 -106.792 158.929 -58.6659
37 22.4144 -43.403 -3.44303
38 110.192 -67.8344 -161.15
39 -96.6 769.052 239.366
40 246.36 773.239 62.9567
41 -39.8692 -71.635 -353.183
42 -277.113 -26.0859 45.7518
43 -151.175 -439.724 -52.3824
44 -64.7889 -228.273 -30.4975
45 -407.958 -112.477 130.746
46 -36.1778 196.171 345.854
47 -128.973 624.77 59.6963
48 -250.942 -276.547 458.796
49 -207.561 86.4575 -266.054
50 -285.593 -110.811 83.5003
ITEM: TIMESTEP
1800
ITEM: NUMBER OF ATOMS
50
ITEM: BOX BOUNDS mm mm mm
-1.0000000000000000e-03 1.0000000000000000e-03
-1.0000000000000000e-03 1.0000000000000000e-03
-1.0000000000000000e-03 1.0000000000000000e-03
ITEM: ATOMS id f_8953476861[1] f_8953476861[2] f_8953476861[3]
1 -60.4672 -113.752 -22.2873
2 -49.3966 92.1233 -43.279
3 -25.3126 -28.0713 -141.261
4 -21.6048 -8.16204 -79.3765
5 186.531 -109.945 -209.269
6 122.402 -127.865 395.53
7 -92.2387 -76.1702 -347.027
8 107.35 -38.3222 370.281
9 49.4729 -105.72 221.62
10 237.604 -152.468 -271.58
11 13.0597 5.61163 -201.735
12 -117.589 241.004 -305.698
13 -8.24107 24.3864 73.0508
14 -107.383 138.933 -421.606
15 188.427 -210.571 276.316
16 -9.68563 -232.212 112.998
17 -10.7096 -5.50658 10.0177
18 -112.663 65.7854 -270.991
19 12.4842 -10.3839 -35.646
20 128.299 -109.264 -357.431
21 -168.069 28.9431 86.0382
22 -91.099 -108.855 35.3038
23 -4.42617 -86.5263 -21.7383
24 24.446 116.189 -107.308
25 -93.8932 -32.2999 128.667
26 203.956 93.6081 -265.633
27 -97.3017 2.54866 59.9259
28 -40.9498 -175.33 -419.53
29 94.124 -6.14307 -63.7761
30 263.299 -224.296 25.5831
31 -24.6006 -20.771 -27.3023
32 82.6994 206.645 -131.687
33 104.384 -88.4344 343.474
34 -29.2953 74.776 -467.394
35 54.8757 -302.287 -259.733
36 56.0675 -66.0884 30.9289
37 -15.5757 43.0189 -12.4501
38 -58.7832 45.1814 142.569
39 30.1319 -277.709 -215.399
40 -93.6765 -285.075 -65.2044
41 17.7445 42.2721 333.69
42 119.732 5.5769 -49.0489
43 55.7833 177.203 48.501
44 35.1391 102.033 26.8695
45 166.931 47.649 -122.692
46 15.3262 -79.5395 -332.3
47 51.1012 -229.962 -57.3781
48 95.8357 107.755 -443.66
49 77.0879 -23.0047 257.231
50 121.499 57.7502 -79.7825
ITEM: TIMESTEP
2000
ITEM: NUMBER OF ATOMS
50
ITEM: BOX BOUNDS mm mm mm
-1.0000000000000000e-03 1.0000000000000000e-03
-1.0000000000000000e-03 1.0000000000000000e-03
-1.0000000000000000e-03 1.0000000000000000e-03
ITEM: ATOMS id f_8953476861[1] f_8953476861[2] f_8953476861[3]
1 -71.005 -106.894 17.8154
2 -41.6052 92.6938 40.3163
3 -10.2549 20.5719 131.409
4 -6.07539 -40.4372 71.5126
5 356.652 -221.7 202.448
6 208.048 -194.028 -377.39
7 -141.617 -133.919 330.214
8 176.53 -83.8732 -355.186
9 97.0973 -172.142 -212.823
10 415.801 -277.069 259.778
11 -18.8713 0.641189 193.854
12 -223.207 457.94 293.078
13 -15.0871 -9.86651 -63.8006
14 -192.721 248.99 404.473
15 360.428 -400.714 -264.937
16 -9.74435 -433.366 -110.684
17 -22.2466 -35.1806 -16.3246
18 -172.064 104.058 259.461
19 -29.5812 10.6828 38.2543
20 230.679 -202.315 342.05
21 -279.797 42.7815 -81.6692
22 -97.2154 -146.939 -30.9429
23 -32.188 -126.769 21.6201
24 41.0619 154.27 102.737
25 -138.769 -46.9002 -99.2539
26 380.121 173.685 258.271
27 -90.6034 -2.36238 -56.692
28 -72.0392 -320.789 403.235
29 162.451 -20.163 37.5053
30 499.049 -428.745 -25.2677
31 -4.48624 16.3815 16.2477
32 152.3 367.074 125.401
33 207.369 -180.783 -331.256
34 -52.2368 125.608 448.068
35 78.516 -547.443 242.135
36 58.5859 -90.1563 -24.7836
37 -44.5645 -5.99511 21.5138
38 -65.3227 41.4243 -132.462
39 88.6826 -552.423 213.464
40 -165.454 -540.422 61.6697
41 23.8653 46.4128 -320.444
42 173.299 22.9561 47.6589
43 97.9615 301.463 -46.0854
44 55.3854 144.528 -25.2624
45 268.282 79.6883 117.16
46 24.8686 -132.264 318.85
47 87.4508 -427.682 54.246
48 172.122 193.697 425.141
49 145.735 -61.7433 -246.686
50 194.997 71.9856 76.5122
ITEM: TIMESTEP
2200
ITEM: NUMBER OF ATOMS
50
ITEM: BOX BOUNDS mm mm mm
-1.0000000000000000e-03 1.0000000000000000e-03
-1.0000000000000000e-03 1.0000000000000000e-03
-1.0000000000000000e-03 1.0000000000000000e-03
ITEM: ATOMS id f_8953476861[1] f_8953476861[2] f_8953476861[3]
1 56.4926 111.699 -8.50382
2 28.8343 -99.0301 -22.76
3 17.5465 -9.4684 -111.187
4 -19.6804 23.2151 -50.5287
5 -289.816 170.203 -196.793
6 -185.073 178.914 345.853
7 132.471 123.14 -288.859
8 -141.098 85.0049 313.098
9 -68.8318 143.801 209.104
10 -340.489 234.359 -241.606
11 29.2205 -12.2111 -160.551
12 181.213 -372.21 -286.93
13 4.16144 14.9909 41.1786
14 177.271 -269.664 -323.942
15 -289.721 314.594 238.966
16 22.7671 350.397 104.635
17 47.1633 15.4623 5.73103
18 155.084 -100.227 -266.271
19 22.8538 42.8548 -25.455
20 -179.829 150.408 -299.037
21 249.928 -39.7869 70.272
22 110.23 169.796 -1.50039
23 31.5064 119.196 -7.6049
24 -45.1603 -145.275 -100.669
25 136.039 43.8383 60.847
26 -315.415 -143.863 -247.371
27 91.5125 -18.2114 50.1573
28 49.8606 320.539 -406.34
29 -139.421 16.5552 -9.85019
30 -400.634 340.067 18.005
31 84.2715 59.6598 -44.0248
32 -130.229 -310.624 -119.16
33 -184.333 134.872 326.661
34 49.3496 -122.473 -407.769
35 -64.6329 442.942 -215.062
36 -73.68 16.5758 28.4168
37 51.2195 -7.47947 -49.6677
38 79.2077 -63.2888 93.1087
39 -74.4029 443.682 -212.096
40 136.57 437.006 -51.7933
41 -18.5365 -33.7749 302.364
42 -161.295 -48.6313 -39.9583
43 -77.0564 -260.307 46.6152
44 -27.0563 -153.545 9.7892
45 -234.3 -79.1856 -98.6169
46 -23.0694 53.0121 -305.914
47 -73.7232 346.897 -47.8461
48 -158.04 -139.11 -403.37
49 -143.801 35.3357 228.092
50 -179.506 -63.8908 -56.1926
ITEM: TIMESTEP
2400
ITEM: NUMBER OF ATOMS
50
ITEM: BOX BOUNDS mm mm mm
-1.0000000000000000e-03 1.0000000000000000e-03
-1.0000000000000000e-03 1.0000000000000000e-03
-1.0000000000000000e-03 1.0000000000000000e-03
ITEM: ATOMS id f_8953476861[1] f_8953476861[2] f_8953476861[3]
1 19.3863 7.16695 25.6657
2 -5.19796 2.61601 22.065
3 -17.897 -23.9511 93.0728
4 -8.08614 -3.40689 29.7382
5 -195.109 125.03 187.238
6 -107.749 79.7781 -314.266
7 59.6133 69.0672 268.247
8 -82.7696 59.1804 -292.972
9 -54.8323 72.826 -197.415
10 -211.89 148.713 225.829
11 28.8573 5.27483 149.431
12 122.471 -249.159 269.269
13 14.9995 29.6282 -21.1356
14 110.89 -173.908 303.111
15 -197.382 211.887 -223.526
16 6.53412 228.976 -98.5774
17 9.88703 22.6759 2.66738
18 75.7025 -52.3267 250.092
19 34.4716 16.909 25.5689
20 -110.996 97.7809 278.31
21 131.996 -17.3695 -60.906
22 16.5997 46.145 3.78775
23 21.3007 13.94 -10.8814
24 -23.0341 -46.5659 94.1254
25 54.575 19.3212 -35.2739
26 -205.012 -89.2421 233.447
27 -0.87414 7.30991 -41.7542
28 23.8584 212.184 382.424
29 -76.0578 23.5299 -10.5603
30 -270.308 232.536 -15.4851
31 20.0775 16.5064 34.5724
32 -80.1319 -187.844 108.898
33 -119.517 98.7966 -313.508
34 29.7864 -63.1288 379.278
35 -45.3205 284.133 194.944
36 9.65762 -2.79146 -13.6089
37 -4.7272 29.4259 27.2181
38 14.9243 4.16756 -76.2725
39 -53.3389 310.543 205.491
40 80.8942 293.713 46.3171
41 -7.50107 0.944202 -283.99
42 -74.8986 -28.1001 39.4066
43 -46.7775 -143.973 -39.3938
44 -8.8916 -51.9156 -5.95122
45 -113.016 -42.122 90.6019
46 -6.35299 21.9911 285.423
47 -33.2621 225.912 43.9771
48 -95.1527 -86.4278 378.259
49 -82.6069 46.0362 -212.576
50 -78.0082 -14.4651 47.2354
ITEM: TIMESTEP
2600
ITEM: NUMBER OF ATOMS
50
ITEM: BOX BOUNDS mm mm mm
-1.0000000000000000e-03 1.0000000000000000e-03
-1.0000000000000000e-03 1.0000000000000000e-03
-1.0000000000000000e-03 1.0000000000000000e-03
ITEM: ATOMS id f_8953476861[1] f_8953476861[2] f_8953476861[3]
1 -57.4747 -41.5982 -2.19036
2 11.0487 30.7433 -17.701
3 -7.15188 30.2288 -70.2013
4 1.38961 14.7419 17.134
5 308.741 -202.005 -190.288
6 206.565 -148.343 281.974
7 -115.679 -121.788 -229.849
8 138.555 -88.3329 232.873
9 82.5287 -104.813 196.146
10 350.792 -231.879 -219.724
11 -38.4504 9.29607 -117.574
12 -196.964 400.224 -257.419
13 -40.4608 -50.3953 -17.1543
14 -188.08 296.547 -278.725
15 335.579 -324.765 206.321
16 25.6557 -364.406 81.3535
17 -24.3687 -51.228 -7.0979
18 -137.645 102.835 -248.229
19 -88.6815 -18.1233 -36.5513
20 197.46 -170.065 -251.171
21 -247.81 59.2967 37.6853
22 -75.2023 -142.499 -9.97971
23 -70.6959 -76.9992 -19.7737
24 45.1451 100.667 -82.6242
25 -143.811 -36.3734 1.43325
26 325.523 153.537 -244.797
27 -39.3343 0.847458 32.4443
28 -20.4138 -347.466 -368.549
29 145.152 -28.9013 36.0258
30 427.75 -362.816 11.8816
31 -63.448 -38.54 -27.3848
32 116.897 331.01 -77.4513
33 184.583 -176.159 261.35
34 -49.4156 117.95 -334.988
35 73.5899 -482.995 -159.622
36 5.83614 12.9706 -17.1913
37 38.5726 -23.5756 -20.7768
38 -67.4759 39.751 58.4127
39 70.2713 -505.05 -170.472
40 -126.385 -478.033 -26.2832
41 -9.97114 3.01521 268.605
42 137.547 55.2793 -27.7911
43 73.1312 270.555 26.5944
44 23.1754 133.641 8.58839
45 223.039 92.8455 -61.4823
46 10.0773 -16.4008 -240.817
47 44.3314 -381.613 -33.8102
48 158.234 154.281 -346.882
49 142.558 -69.2793 199.719
50 152.732 48.083 -33.6986
ITEM: TIMESTEP
2800
ITEM: NUMBER OF ATOMS
50
ITEM: BOX BOUNDS mm mm mm
-1.0000000000000000e-03 1.0000000000000000e-03
-1.0000000000000000e-03 1.0000000000000000e-03
-1.0000000000000000e-03 1.0000000000000000e-03
ITEM: ATOMS id f_8953476861[1] f_8953476861[2] f_8953476861[3]
1 12.3309 10.1561 -2.12832
2 -8.58138 -32.4314 4.51423
3 12.1026 -26.7104 55.3573
4 -4.46268 -10.89 -29.5996
5 47.6977 -41.3831 186.131
6 29.246 1.89018 -255.821
7 12.2805 4.80714 214.121
8 3.73823 -16.4865 -220.275
9 27.9826 -0.264571 -188.847
10 30.1472 -23.7805 195.648
11 15.3968 -6.17889 86.6623
12 -28.09 53.2621 241.261
13 12.4922 -18.6214 3.12323
14 -19.6788 39.1292 251.722
15 49.9066 -47.3486 -189.471
16 6.75995 -46.3705 -75.2838
17 12.6198 36.484 7.42568
18 12.6315 -2.89992 237.008
19 27.7768 -0.667691 18.8341
20 16.7194 -18.5022 221.93
21 8.84294 -3.90163 -16.5916
22 34.1503 63.0327 13.3209
23 52.6818 26.1123 40.9253
24 -15.9473 -16.3069 52.9802
25 35.322 0.0980567 30.231
26 36.8679 11.4948 229.238
27 8.78315 -9.87769 0.417887
28 4.75052 -49.7809 338.646
29 -7.38992 -2.27318 -51.927
30 62.3241 -56.8953 -9.21158
31 39.1431 20.2858 -13.6984
32 8.97489 21.5681 64.4124
33 0.0795788 -8.0103 -226.879
34 -1.65612 -4.44279 307.187
35 7.99448 -76.1712 137.234
36 -31.1161 16.0511 46.2679
37 -9.12285 22.3625 12.6327
38 22.8749 -60.9505 8.05194
39 16.9848 -64.0646 165.716
40 -6.3782 -65.3923 20.8463
41 0.92267 -23.7333 -246.629
42 -29.7793 -21.2438 23.2754
43 7.36216 0.314699 -9.98889
44 -15.8299 -44.4599 -10.4446
45 -19.9423 -7.70617 45.2366
46 -6.13236 4.98624 212.136
47 1.34336 -43.6986 28.5888
48 12.6879 11.5984 319.046
49 0.681644 -31.291 -187.772
50 -19.006 -9.46183 29.6784
ITEM: TIMESTEP
3000
ITEM: NUMBER OF ATOMS
50
ITEM: BOX BOUNDS mm mm mm
-1.0000000000000000e-03 1.0000000000000000e-03
-1.0000000000000000e-03 1.0000000000000000e-03
-1.0000000000000000e-03 1.0000000000000000e-03
ITEM: ATOMS id f_8953476861[1] f_8953476861[2] f_8953476861[3]
1 -10.4444 -46.797 -13.5508
2 4.98353 38.5121 -7.25328
3 -24.4531 -19.5969 -26.0544
4 37.5521 -13.4013 15.6731
5 -313.512 225.108 -146.962
6 -189.578 112.541 223.183
7 79.6969 93.0658 -190.291
8 -100.799 78.5265 186.267
9 -95.8231 60.3657 167.824
10 -282.024 178.713 -170.858
11 14.2318 32.5483 -56.0736
12 177.324 -343.602 -229.166
13 41.6683 36.83 -14.2811
14 157.381 -255.057 -222.018
15 -294.908 275.777 171.71
16 -33.3545 306.679 63.3385
17 39.1983 10.5762 -21.645
18 91.6443 -87.1887 -216.378
19 52.0535 44.9225 -14.9388
20 -162.139 149.173 -195.171
21 196.147 -50.9509 9.72571
22 39.4677 53.1637 -15.937
23 19.753 -22.012 -35.2007
24 -24.1439 -38.7271 -33.8974
25 91.2889 18.2625 -53.4876
26 -268.381 -125.488 -217.158
27 42.5227 5.38188 -54.38
28 11.3698 300.875 -306.36
29 -125.248 22.5993 66.1961
30 -367.161 319.937 1.43131
31 13.1087 3.77799 29.7789
32 -76.06 -285.902 -54.5733
33 -144.853 146.121 202.155
34 38.4235 -89.2914 -272.457
35 -54.9072 423.244 -126.677
36 57.9235 2.30489 -31.4841
37 -24.1477 10.369 -0.186855
38 10.8713 36.6272 -26.749
39 -62.8877 416.536 -140.262
40 101.904 422.541 -9.64152
41 16.7593 15.7926 220.03
42 -71.7505 -18.9108 -19.3822
43 -87.4795 -211.006 -2.65322
44 -6.23502 -66.2927 5.26614
45 -164.837 -85.1983 -31.614
46 12.676 19.2524 -177.678
47 -24.9151 322.819 -18.5222
48 -131.147 -135.889 -286.629
49 -119.516 97.0375 174.864
50 -90.7989 -43.6541 -36.1214
ITEM: TIMESTEP
3200
ITEM: NUMBER OF ATOMS
50
ITEM: BOX BOUNDS mm mm mm
-1.0000000000000000e-03 1.0000000000000000e-03
-1.0000000000000000e-03 1.0000000000000000e-03
-1.0000000000000000e-03 1.0000000000000000e-03
ITEM: ATOMS id f_8953476861[1] f_8953476861[2] f_8953476861[3]
1 20.7183 4.41478 -0.568505
2 -31.0469 -30.7818 42.1408
3 -8.33719 43.7332 0.584431
4 -41.1654 -9.45705 19.6134
5 54.8869 -83.423 154.569
6 75.3319 -41.4321 -174.643
7 -48.2993 -48.0435 166.501
8 31.2514 -20.0715 -169.822
9 32.428 -3.66013 -165.787
10 95.6348 -45.4053 157.173
11 -3.84498 -22.321 6.08742
12 -51.5729 99.6547 203.32
13 -25.053 -35.5193 17.3764
14 -42.8594 73.303 204.663
15 75.212 -77.355 -171.053
16 11.0103 -81.6153 -40.0882
17 -32.7574 7.49568 5.8871
18 -38.9591 64.424 195.369
19 -34.0478 -35.5574 2.5023
20 55.981 -49.1527 157.149
21 -109.356 33.915 26.7718
22 -74.6047 -51.5516 32.158
23 -41.3563 29.0041 7.45645
24 1.84222 36.5536 1.92617
25 -85.0441 -12.823 84.9041
26 85.6006 39.935 210.481
27 8.86237 29.5226 42.8517
28 -11.6797 -77.5331 276.5
29 80.2755 -6.23056 -64.6936
30 96.4116 -82.1997 14.9884
31 -20.3125 21.3898 -25.3305
32 27.0163 112.258 23.7158
33 61.2214 -66.0769 -163.102
34 -37.6018 26.8909 237.885
35 9.35517 -110.461 114.06
36 -48.6998 10.3989 22.4408
37 -1.06178 0.284998 20.9394
38 -14.9436 5.34321 34.7334
39 16.0622 -109.664 113.634
40 -42.6046 -120.751 -4.05989
41 -20.8377 0.227903 -192.591
42 56.3493 8.82426 23.7287
43 29.8801 104.237 34.318
44 16.8326 69.1483 41.1152
45 109.089 52.4723 -1.25215
46 -18.2637 4.1364 149.291
47 1.41582 -104.685 -2.73937
48 44.0567 54.713 261.637
49 39.9878 -26.7569 -172.677
50 61.4464 53.5343 1.99789
ITEM: TIMESTEP
3400
ITEM: NUMBER OF ATOMS
50
ITEM: BOX BOUNDS mm mm mm
-1.0000000000000000e-03 1.0000000000000000e-03
-1.0000000000000000e-03 1.0000000000000000e-03
-1.0000000000000000e-03 1.0000000000000000e-03
ITEM: ATOMS id f_8953476861[1] f_8953476861[2] f_8953476861[3]
1 -9.90272 -4.64309 -27.4522
2 -4.24031 -2.14396 -56.0381
3 0.616433 -11.6176 -12.5403
4 -3.92979 16.8848 -42.2643
5 176.92 -249.769 -147.352
6 118.95 -64.6677 139.103
7 -19.139 -14.7577 -137.308
8 90.9435 -40.4227 144.629
9 103.93 -73.8951 158.46
10 175.741 -143.055 -140.803
11 -0.438015 -8.02652 8.67209
12 -141.945 238.111 -180.786
13 -2.08558 23.946 8.9902
14 -94.7747 206.523 -185.041
15 220.723 -209.339 156.347
16 22.533 -219.945 29.4327
17 20.5783 -12.4782 -6.39265
18 -34.4808 48.2645 -168.445
19 19.7301 19.0984 -17.3621
20 115.491 -98.876 -133.065
21 -102.827 24.5581 -38.0236
22 38.8687 39.9585 -3.77691
23 36.6294 -13.2381 29.3909
24 -14.8022 -12.5933 -5.06131
25 16.3601 -7.84763 -81.7823
26 181.255 82.8348 -187.364
27 -8.84653 94.6173 -18.818
28 -0.719653 -225.996 -246.288
29 58.3229 -19.5348 66.1452
30 268.108 -249.984 -16.0943
31 27.8747 -2.97295 -11.7356
32 50.1621 186.877 -16.632
33 78.2161 -54.3213 134.365
34 -26.3005 43.4098 -203.867
35 35.539 -311.598 -105.526
36 16.2941 4.99968 -28.1203
37 -26.3573 19.3599 -25.5751
38 32.316 -47.0627 -20.4477
39 47.6124 -294.85 -95.1916
40 -70.147 -320.897 3.53943
41 1.60025 -29.8989 168.171
42 -35.8514 15.733 -30.9162
43 55.8661 126.435 -41.2196
44 -30.3702 -29.5072 -31.8793
45 63.2089 33.0401 8.71183
46 -28.5256 -21.9521 -123.852
47 -9.1014 -213.357 9.6182
48 82.2608 101.213 -230.975
49 55.3757 -90.3377 152.337
50 -16.4035 -14.9579 10.7145
ITEM: TIMESTEP
3600
ITEM: NUMBER OF ATOMS
50
ITEM: BOX BOUNDS mm mm mm
-1.0000000000000000e-03 1.0000000000000000e-03
-1.0000000000000000e-03 1.0000000000000000e-03
-1.0000000000000000e-03 1.0000000000000000e-03
ITEM: ATOMS id f_8953476861[1] f_8953476861[2] f_8953476861[3]
1 7.54797 -18.4076 58.9269
2 8.41251 -2.4361 45.7884
3 22.1835 -18.5236 15.3407
4 21.2841 -11.0953 51.5199
5 -118.573 169.623 142.604
6 -83.9668 59.2163 -95.1934
7 55.2416 13.1686 93.5858
8 -76.4453 47.9966 -161.866
9 -68.7844 48.5093 -145.641
10 -134.294 109.523 113.34
11 26.5752 17.9055 12.9345
12 105.803 -187.704 168.84
13 9.86518 -37.9994 -4.72102
14 74.5218 -158.066 150.163
15 -159.619 142.372 -155.111
16 -10.3609 172.323 10.5595
17 6.21583 30.1251 63.8838
18 51.751 -30.5965 125.806
19 14.6997 11.2009 18.9974