ITEM: TIMESTEP
0
ITEM: NUMBER OF ATOMS
3
ITEM: BOX BOUNDS mm mm mm
-1.0000000000000000e-03 1.0000000000000000e-03
-1.0000000000000000e-03 1.0000000000000000e-03
-1.0000000000000000e-03 1.0000000000000000e-03
ITEM: ATOMS id x y z vx vy vz
1 2.96122e-05 -3.89139e-05 0.000434829 0 0 0
2 -0.000540388 0.000489988 -0.000108153 0 0 0
3 -0.000203013 0.000206341 -0.000654572 0 0 0
ITEM: TIMESTEP
10
ITEM: NUMBER OF ATOMS
3
ITEM: BOX BOUNDS mm mm mm
-1.0000000000000000e-03 1.0000000000000000e-03
-1.0000000000000000e-03 1.0000000000000000e-03
-1.0000000000000000e-03 1.0000000000000000e-03
ITEM: ATOMS id x y z vx vy vz
1 1.4751e-05 -1.94159e-05 -0.000407265 220.745 -289.634 130.351
2 -0.000269496 0.000244336 0.000100279 -4024.49 3649.51 -32.2918
3 -0.000101256 0.000102889 0.000611033 -1511.81 1536.99 -195.918
ITEM: TIMESTEP
20
ITEM: NUMBER OF ATOMS
3
ITEM: BOX BOUNDS mm mm mm
-1.0000000000000000e-03 1.0000000000000000e-03
-1.0000000000000000e-03 1.0000000000000000e-03
-1.0000000000000000e-03 1.0000000000000000e-03
ITEM: ATOMS id x y z vx vy vz
1 -1.22387e-05 1.59944e-05 0.000376061 221.26 -290.291 -244.513
2 0.000222473 -0.000201794 -9.35665e-05 -4033.17 3657.38 60.5604
3 8.35461e-05 -8.49914e-05 -0.000566213 -1515 1540.23 367.489
ITEM: TIMESTEP
30
ITEM: NUMBER OF ATOMS
3
ITEM: BOX BOUNDS mm mm mm
-1.0000000000000000e-03 1.0000000000000000e-03
-1.0000000000000000e-03 1.0000000000000000e-03
-1.0000000000000000e-03 1.0000000000000000e-03
ITEM: ATOMS id x y z vx vy vz
1 -2.58018e-05 3.37902e-05 -0.00034502 20.7683 -27.2756 341.562
2 0.000469757 -0.000426037 8.4828e-05 -380.029 344.623 -84.5984
3 0.000176438 -0.00017943 0.000517446 -142.83 145.194 -513.345
ITEM: TIMESTEP
40
ITEM: NUMBER OF ATOMS
3
ITEM: BOX BOUNDS mm mm mm
-1.0000000000000000e-03 1.0000000000000000e-03
-1.0000000000000000e-03 1.0000000000000000e-03
-1.0000000000000000e-03 1.0000000000000000e-03
ITEM: ATOMS id x y z vx vy vz
1 -1.33602e-05 1.79982e-05 0.000324608 -163.92 221.417 -439.547
2 0.000266529 -0.000241808 -7.12737e-05 3269.21 -2965.35 96.29
3 0.000102273 -0.000103786 -0.000488594 1254.13 -1272.11 660.216
ITEM: TIMESTEP
50
ITEM: NUMBER OF ATOMS
3
ITEM: BOX BOUNDS mm mm mm
-1.0000000000000000e-03 1.0000000000000000e-03
-1.0000000000000000e-03 1.0000000000000000e-03
-1.0000000000000000e-03 1.0000000000000000e-03
ITEM: ATOMS id x y z vx vy vz
1 7.85869e-06 -1.06684e-05 -0.000291131 -181.787 245.654 507.572
2 -0.000156884 0.000142252 6.29254e-05 3630.44 -3293.02 -111.113
3 -6.01743e-05 6.09877e-05 0.00043619 1393.04 -1412.96 -762.391
ITEM: TIMESTEP
60
ITEM: NUMBER OF ATOMS
3
ITEM: BOX BOUNDS mm mm mm
-1.0000000000000000e-03 1.0000000000000000e-03
-1.0000000000000000e-03 1.0000000000000000e-03
-1.0000000000000000e-03 1.0000000000000000e-03
ITEM: ATOMS id x y z vx vy vz
1 2.00497e-05 -2.71589e-05 0.000256034 -32.9789 44.6953 -560.146
2 -0.0004011 0.000363771 -5.6354e-05 664.795 -603.022 122.744
3 -0.000153933 0.000156082 -0.000385625 255.497 -259.095 841.439
ITEM: TIMESTEP
70
ITEM: NUMBER OF ATOMS
3
ITEM: BOX BOUNDS mm mm mm
-1.0000000000000000e-03 1.0000000000000000e-03
-1.0000000000000000e-03 1.0000000000000000e-03
-1.0000000000000000e-03 1.0000000000000000e-03
ITEM: ATOMS id x y z vx vy vz
1 1.29605e-05 -1.75897e-05 -0.000223469 132.66 -179.212 599.127
2 -0.000260058 0.000235839 4.81898e-05 -2646.4 2400.43 -131.227
3 -9.9846e-05 0.000101215 0.000334576 -1015.28 1029.83 -899.972
ITEM: TIMESTEP
80
ITEM: NUMBER OF ATOMS
3
ITEM: BOX BOUNDS mm mm mm
-1.0000000000000000e-03 1.0000000000000000e-03
-1.0000000000000000e-03 1.0000000000000000e-03
-1.0000000000000000e-03 1.0000000000000000e-03
ITEM: ATOMS id x y z vx vy vz
1 -5.30788e-06 7.09758e-06 0.000190183 163.378 -220.887 -625.136
2 0.000104773 -9.50831e-05 -4.19493e-05 -3267.71 2964.01 136.943
3 4.01462e-05 -4.07795e-05 -0.000286701 -1254.19 1272.09 939.07
ITEM: TIMESTEP
90
ITEM: NUMBER OF ATOMS
3
ITEM: BOX BOUNDS mm mm mm
-1.0000000000000000e-03 1.0000000000000000e-03
-1.0000000000000000e-03 1.0000000000000000e-03
-1.0000000000000000e-03 1.0000000000000000e-03
ITEM: ATOMS id x y z vx vy vz
1 -1.71966e-05 2.31755e-05 -0.000160058 43.1004 -58.4112 639.936
2 0.000342793 -0.000310983 3.43016e-05 -868.96 788.218 -140.09
3 0.000131515 -0.00013345 0.000239283 -333.929 338.628 -961.154
ITEM: TIMESTEP
100
ITEM: NUMBER OF ATOMS
3
ITEM: BOX BOUNDS mm mm mm
-1.0000000000000000e-03 1.0000000000000000e-03
-1.0000000000000000e-03 1.0000000000000000e-03
-1.0000000000000000e-03 1.0000000000000000e-03
ITEM: ATOMS id x y z vx vy vz
1 -1.24517e-05 1.6782e-05 0.000129731 -105.95 143.066 -644
2 0.000248943 -0.000225858 -2.86971e-05 2110.33 -1914.18 140.977
3 9.55576e-05 -9.69693e-05 -0.00019585 809.475 -821.104 967.263
ITEM: TIMESTEP
110
ITEM: NUMBER OF ATOMS
3
ITEM: BOX BOUNDS mm mm mm
-1.0000000000000000e-03 1.0000000000000000e-03
-1.0000000000000000e-03 1.0000000000000000e-03
-1.0000000000000000e-03 1.0000000000000000e-03
ITEM: ATOMS id x y z vx vy vz
1 3.1545e-06 -4.30851e-06 -0.000103576 -145.226 196.564 642.473
2 -6.27338e-05 5.68509e-05 2.18041e-05 2914.36 -2643.51 -139.903
3 -2.40414e-05 2.43411e-05 0.000154101 1119.13 -1135.05 -963.106
ITEM: TIMESTEP
120
ITEM: NUMBER OF ATOMS
3
ITEM: BOX BOUNDS mm mm mm
-1.0000000000000000e-03 1.0000000000000000e-03
-1.0000000000000000e-03 1.0000000000000000e-03
-1.0000000000000000e-03 1.0000000000000000e-03
ITEM: ATOMS id x y z vx vy vz
1 1.44739e-05 -1.96388e-05 7.68859e-05 -49.5145 67.2168 -629.357
2 -0.000290355 0.000263319 -1.70168e-05 1003.6 -910.35 137.007
3 -0.000111477 0.000113016 -0.000116203 385.936 -391.333 943.398
ITEM: TIMESTEP
130
ITEM: NUMBER OF ATOMS
3
ITEM: BOX BOUNDS mm mm mm
-1.0000000000000000e-03 1.0000000000000000e-03
-1.0000000000000000e-03 1.0000000000000000e-03
-1.0000000000000000e-03 1.0000000000000000e-03
ITEM: ATOMS id x y z vx vy vz
1 1.14801e-05 -1.56728e-05 -5.37895e-05 81.927 -111.042 606.865
2 -0.000234357 0.000212539 1.11119e-05 -1650.39 1497.04 -134.348
3 -9.0308e-05 9.14994e-05 7.94316e-05 -634.771 643.688 -909.121
ITEM: TIMESTEP
140
ITEM: NUMBER OF ATOMS
3
ITEM: BOX BOUNDS mm mm mm
-1.0000000000000000e-03 1.0000000000000000e-03
-1.0000000000000000e-03 1.0000000000000000e-03
-1.0000000000000000e-03 1.0000000000000000e-03
ITEM: ATOMS id x y z vx vy vz
1 -1.5504e-06 2.00974e-06 3.14332e-05 126.737 -172.207 -581.024
2 2.9181e-05 -2.65154e-05 -7.18407e-06 -2574.22 2335.09 128.721
3 1.11197e-05 -1.1343e-05 -4.8046e-05 -991.402 1005.12 870.301
ITEM: TIMESTEP
150
ITEM: NUMBER OF ATOMS
3
ITEM: BOX BOUNDS mm mm mm
-1.0000000000000000e-03 1.0000000000000000e-03
-1.0000000000000000e-03 1.0000000000000000e-03
-1.0000000000000000e-03 1.0000000000000000e-03
ITEM: ATOMS id x y z vx vy vz
1 -1.20429e-05 1.62871e-05 -1.29398e-05 52.4032 -71.5373 550.322
2 0.000243278 -0.000220727 2.03611e-06 -1080.92 980.551 -122.032
3 9.36394e-05 -9.49956e-05 1.8232e-05 -417.26 422.879 -824.275
ITEM: TIMESTEP
160
ITEM: NUMBER OF ATOMS
3
ITEM: BOX BOUNDS mm mm mm
-1.0000000000000000e-03 1.0000000000000000e-03
-1.0000000000000000e-03 1.0000000000000000e-03
-1.0000000000000000e-03 1.0000000000000000e-03
ITEM: ATOMS id x y z vx vy vz
1 -1.06924e-05 1.44931e-05 -5.018e-06 -63.005 85.2942 -516.495
2 0.000217898 -0.00019771 9.45806e-07 1263.7 -1146.27 114.471
3 8.39852e-05 -8.51879e-05 6.56767e-06 485.853 -492.727 773.296
ITEM: TIMESTEP
170
ITEM: NUMBER OF ATOMS
3
ITEM: BOX BOUNDS mm mm mm
-1.0000000000000000e-03 1.0000000000000000e-03
-1.0000000000000000e-03 1.0000000000000000e-03
-1.0000000000000000e-03 1.0000000000000000e-03
ITEM: ATOMS id x y z vx vy vz
1 2.43303e-07 -3.44886e-07 1.92028e-05 -110.899 150.796 481.08
2 -3.10905e-06 2.76408e-06 -5.13877e-06 2257.17 -2047.51 -106.162
3 -1.08372e-06 1.06856e-06 -2.99176e-05 869.68 -881.683 -719.44
ITEM: TIMESTEP
180
ITEM: NUMBER OF ATOMS
3
ITEM: BOX BOUNDS mm mm mm
-1.0000000000000000e-03 1.0000000000000000e-03
-1.0000000000000000e-03 1.0000000000000000e-03
-1.0000000000000000e-03 1.0000000000000000e-03
ITEM: ATOMS id x y z vx vy vz
1 9.95103e-06 -1.35737e-05 -3.30709e-05 -53.6607 73.4257 -443.338
2 -0.000202067 0.000183245 7.1846e-06 1115.1 -1011.58 97.4441
3 -7.78259e-05 7.88581e-05 4.85151e-05 430.903 -436.643 662.236
ITEM: TIMESTEP
190
ITEM: NUMBER OF ATOMS
3
ITEM: BOX BOUNDS mm mm mm
-1.0000000000000000e-03 1.0000000000000000e-03
-1.0000000000000000e-03 1.0000000000000000e-03
-1.0000000000000000e-03 1.0000000000000000e-03
ITEM: ATOMS id x y z vx vy vz
1 8.11209e-06 -1.16556e-05 4.37688e-05 40.7253 -57.0819 408.075
2 -0.000199063 0.000180586 -1.04091e-05 -934.746 848.096 -87.8453
3 -7.69285e-05 7.76986e-05 -6.63941e-05 -359.503 363.771 -607.516
ITEM: TIMESTEP
200
ITEM: NUMBER OF ATOMS
3
ITEM: BOX BOUNDS mm mm mm
-1.0000000000000000e-03 1.0000000000000000e-03
-1.0000000000000000e-03 1.0000000000000000e-03
-1.0000000000000000e-03 1.0000000000000000e-03
ITEM: ATOMS id x y z vx vy vz
1 4.07763e-07 -7.56506e-07 -5.38011e-05 81.0591 -115.263 -366.779
2 -1.66912e-05 1.51079e-05 1.15666e-05 -1951.12 1770.44 78.7424
3 -6.63218e-06 6.60854e-06 7.92157e-05 -753.028 761.295 545.889
ITEM: TIMESTEP
210
ITEM: NUMBER OF ATOMS
3
ITEM: BOX BOUNDS mm mm mm
-1.0000000000000000e-03 1.0000000000000000e-03
-1.0000000000000000e-03 1.0000000000000000e-03
-1.0000000000000000e-03 1.0000000000000000e-03
ITEM: ATOMS id x y z vx vy vz
1 -6.94371e-06 9.78443e-06 6.00508e-05 43.2818 -62.765 324.41
2 0.000164815 -0.000149601 -1.42163e-05 -1106.4 1004.09 -70.4836
3 6.36307e-05 -6.43887e-05 -9.05402e-05 -429.629 433.843 -482.413
ITEM: TIMESTEP
220
ITEM: NUMBER OF ATOMS
3
ITEM: BOX BOUNDS mm mm mm
-1.0000000000000000e-03 1.0000000000000000e-03
-1.0000000000000000e-03 1.0000000000000000e-03
-1.0000000000000000e-03 1.0000000000000000e-03
ITEM: ATOMS id x y z vx vy vz
1 -7.33666e-06 1.04641e-05 -6.66219e-05 -29.8697 41.5458 -284.838
2 0.000180866 -0.00016418 1.46119e-05 667.795 -605.86 61.3918
3 7.00353e-05 -7.08146e-05 9.81474e-05 256.446 -259.609 423.022
ITEM: TIMESTEP
230
ITEM: NUMBER OF ATOMS
3
ITEM: BOX BOUNDS mm mm mm
-1.0000000000000000e-03 1.0000000000000000e-03
-1.0000000000000000e-03 1.0000000000000000e-03
-1.0000000000000000e-03 1.0000000000000000e-03
ITEM: ATOMS id x y z vx vy vz
1 -9.93217e-07 1.49782e-06 6.97157e-05 -69.147 98.6928 245.108
2 3.12295e-05 -2.84043e-05 -1.6443e-05 1680.99 -1525.39 -52.7188
3 1.23223e-05 -1.24504e-05 -0.0001048 650.509 -657.456 -363.847
ITEM: TIMESTEP
240
ITEM: NUMBER OF ATOMS
3
ITEM: BOX BOUNDS mm mm mm
-1.0000000000000000e-03 1.0000000000000000e-03
-1.0000000000000000e-03 1.0000000000000000e-03
-1.0000000000000000e-03 1.0000000000000000e-03
ITEM: ATOMS id x y z vx vy vz
1 5.61603e-06 -8.01611e-06 -7.38578e-05 -41.5436 60.606 -209.97
2 -0.000133669 0.000121238 1.61219e-05 1079.4 -979.62 43.9383
3 -5.1638e-05 5.21645e-05 0.000108549 420.15 -424.146 310.448
ITEM: TIMESTEP
250
ITEM: NUMBER OF ATOMS
3
ITEM: BOX BOUNDS mm mm mm
-1.0000000000000000e-03 1.0000000000000000e-03
-1.0000000000000000e-03 1.0000000000000000e-03
-1.0000000000000000e-03 1.0000000000000000e-03
ITEM: ATOMS id x y z vx vy vz
1 6.47186e-06 -9.39481e-06 7.43329e-05 21.3541 -29.1935 173.761
2 -0.000162844 0.00014773 -1.72916e-05 -449.547 407.791 -35.7957
3 -6.32327e-05 6.38213e-05 -0.000111295 -171.709 174.051 -256.653
ITEM: TIMESTEP
260
ITEM: NUMBER OF ATOMS
3
ITEM: BOX BOUNDS mm mm mm
-1.0000000000000000e-03 1.0000000000000000e-03
-1.0000000000000000e-03 1.0000000000000000e-03
-1.0000000000000000e-03 1.0000000000000000e-03
ITEM: ATOMS id x y z vx vy vz
1 1.09085e-06 -1.88923e-06 -7.7668e-05 53.5124 -78.9051 -144.319
2 -4.11906e-05 3.73667e-05 1.50924e-05 -1425.42 1294 25.1755
3 -1.669e-05 1.66885e-05 0.000114365 -562.636 567.074 213.604
ITEM: TIMESTEP
270
ITEM: NUMBER OF ATOMS
3
ITEM: BOX BOUNDS mm mm mm
-1.0000000000000000e-03 1.0000000000000000e-03
-1.0000000000000000e-03 1.0000000000000000e-03
-1.0000000000000000e-03 1.0000000000000000e-03
ITEM: ATOMS id x y z vx vy vz
1 -4.2602e-06 6.08958e-06 7.60703e-05 34.9962 -53.3513 111.894
2 0.000106023 -9.62839e-05 -1.57463e-05 -1024.53 930.257 -18.5618
3 4.15978e-05 -4.20246e-05 -0.000114001 -407.774 410.336 -165.215
ITEM: TIMESTEP
280
ITEM: NUMBER OF ATOMS
3
ITEM: BOX BOUNDS mm mm mm
-1.0000000000000000e-03 1.0000000000000000e-03
-1.0000000000000000e-03 1.0000000000000000e-03
-1.0000000000000000e-03 1.0000000000000000e-03
ITEM: ATOMS id x y z vx vy vz
1 -4.8615e-06 7.38367e-06 -7.39127e-05 -13.914 18.6405 -80.5631
2 0.000143535 -0.000130386 1.52074e-05 271.769 -246.513 13.0061
3 5.72552e-05 -5.76443e-05 0.00010856 103.744 -105.244 118.615
ITEM: TIMESTEP
290
ITEM: NUMBER OF ATOMS
3
ITEM: BOX BOUNDS mm mm mm
-1.0000000000000000e-03 1.0000000000000000e-03
-1.0000000000000000e-03 1.0000000000000000e-03
-1.0000000000000000e-03 1.0000000000000000e-03
ITEM: ATOMS id x y z vx vy vz
1 -1.15862e-06 1.97672e-06 7.10135e-05 -43.1947 64.7122 54.2864
2 4.76957e-05 -4.3386e-05 -1.54618e-05 1204.62 -1093.71 -7.04261
3 1.94805e-05 -1.95588e-05 -0.000106127 478.093 -481.381 -79.3033
ITEM: TIMESTEP
300
ITEM: NUMBER OF ATOMS
3
ITEM: BOX BOUNDS mm mm mm
-1.0000000000000000e-03 1.0000000000000000e-03
-1.0000000000000000e-03 1.0000000000000000e-03
-1.0000000000000000e-03 1.0000000000000000e-03
ITEM: ATOMS id x y z vx vy vz
1 3.24723e-06 -4.77646e-06 -6.84088e-05 -29.0936 46.451 -29.8443
2 -8.31033e-05 7.53865e-05 1.41754e-05 960.356 -872.239 1.60255
3 -3.27492e-05 3.29749e-05 0.000100003 387.006 -388.643 43.1635
ITEM: TIMESTEP
310
ITEM: NUMBER OF ATOMS
3
ITEM: BOX BOUNDS mm mm mm
-1.0000000000000000e-03 1.0000000000000000e-03
-1.0000000000000000e-03 1.0000000000000000e-03
-1.0000000000000000e-03 1.0000000000000000e-03
ITEM: ATOMS id x y z vx vy vz
1 4.09957e-06 -6.43967e-06 6.54582e-05 10.189 -12.4138 9.26851
2 -0.000126791 0.000115092 -1.37658e-05 -133.959 121.33 3.64791
3 -5.08834e-05 5.10992e-05 -9.73724e-05 -47.888 49.2208 -12.5687
ITEM: TIMESTEP
320
ITEM: NUMBER OF ATOMS
3
ITEM: BOX BOUNDS mm mm mm
-1.0000000000000000e-03 1.0000000000000000e-03
-1.0000000000000000e-03 1.0000000000000000e-03
-1.0000000000000000e-03 1.0000000000000000e-03
ITEM: ATOMS id x y z vx vy vz
1 1.04021e-06 -2.04292e-06 -6.22292e-05 35.9066 -54.0507 9.98269
2 -5.15036e-05 4.67556e-05 1.20721e-05 -1009.82 916.885 -8.06016
3 -2.13042e-05 2.12513e-05 9.03854e-05 -402.456 405.12 -15.6906
ITEM: TIMESTEP
330
ITEM: NUMBER OF ATOMS
3
ITEM: BOX BOUNDS mm mm mm
-1.0000000000000000e-03 1.0000000000000000e-03
-1.0000000000000000e-03 1.0000000000000000e-03
-1.0000000000000000e-03 1.0000000000000000e-03
ITEM: ATOMS id x y z vx vy vz
1 -2.39826e-06 3.48692e-06 6.05238e-05 19.9642 -36.2877 -27.795
2 6.30807e-05 -5.73475e-05 -9.9026e-06 -876.632 797.053 11.3056
3 2.55864e-05 -2.57637e-05 -9.02669e-05 -370.46 369.705 41.8704
ITEM: TIMESTEP
340
ITEM: NUMBER OF ATOMS
3
ITEM: BOX BOUNDS mm mm mm
-1.0000000000000000e-03 1.0000000000000000e-03
-1.0000000000000000e-03 1.0000000000000000e-03
-1.0000000000000000e-03 1.0000000000000000e-03
ITEM: ATOMS id x y z vx vy vz
1 -2.98962e-06 4.95933e-06 -5.68999e-05 -8.52064 8.75921 42.815
2 0.000109462 -9.95478e-05 8.14013e-06 28.2683 -25.2361 -14.0127
3 4.57303e-05 -4.57762e-05 8.26022e-05 3.25511 -4.71399 -64.0501
ITEM: TIMESTEP
350
ITEM: NUMBER OF ATOMS
3
ITEM: BOX BOUNDS mm mm mm
-1.0000000000000000e-03 1.0000000000000000e-03
-1.0000000000000000e-03 1.0000000000000000e-03
-1.0000000000000000e-03 1.0000000000000000e-03
ITEM: ATOMS id x y z vx vy vz
1 -1.35403e-07 1.06633e-06 4.90018e-05 -20.2942 35.3161 -52.794
2 5.16375e-05 -4.70569e-05 -9.14569e-06 822.041 -747.257 17.8014
3 2.26838e-05 -2.25025e-05 -7.2893e-05 341.93 -341.651 78.4384
ITEM: TIMESTEP
360
ITEM: NUMBER OF ATOMS
3
ITEM: BOX BOUNDS mm mm mm
-1.0000000000000000e-03 1.0000000000000000e-03
-1.0000000000000000e-03 1.0000000000000000e-03
-1.0000000000000000e-03 1.0000000000000000e-03
ITEM: ATOMS id x y z vx vy vz
1 1.82442e-06 -2.71768e-06 -4.62007e-05 -10.3982 25.2964 62.9526
2 -4.72971e-05 4.2907e-05 6.87704e-06 797.642 -725.632 -19.9125
3 -1.89914e-05 1.90464e-05 6.64507e-05 341.668 -339.654 -93.106
ITEM: TIMESTEP
370
ITEM: NUMBER OF ATOMS
3
ITEM: BOX BOUNDS mm mm mm
-1.0000000000000000e-03 1.0000000000000000e-03
-1.0000000000000000e-03 1.0000000000000000e-03
-1.0000000000000000e-03 1.0000000000000000e-03
ITEM: ATOMS id x y z vx vy vz
1 1.66547e-06 -3.46804e-06 4.03137e-05 10.1171 -8.82678 -69.5909
2 -9.43053e-05 8.57159e-05 -6.92743e-06 48.5281 -44.7525 22.5976
3 -3.99897e-05 3.97841e-05 -5.9705e-05 32.0812 -30.0007 102.202
ITEM: TIMESTEP
380
ITEM: NUMBER OF ATOMS
3
ITEM: BOX BOUNDS mm mm mm
-1.0000000000000000e-03 1.0000000000000000e-03
-1.0000000000000000e-03 1.0000000000000000e-03
-1.0000000000000000e-03 1.0000000000000000e-03
ITEM: ATOMS id x y z vx vy vz
1 -3.48034e-07 -7.06067e-07 -3.91723e-05 16.5112 -28.9615 78.8804
2 -5.0844e-05 4.62886e-05 2.07375e-06 -670.515 609.909 -20.0969
3 -2.33672e-05 2.29532e-05 5.75958e-05 -285.638 284.68 -117.767
ITEM: TIMESTEP
390
ITEM: NUMBER OF ATOMS
3
ITEM: BOX BOUNDS mm mm mm
-1.0000000000000000e-03 1.0000000000000000e-03
-1.0000000000000000e-03 1.0000000000000000e-03
-1.0000000000000000e-03 1.0000000000000000e-03
ITEM: ATOMS id x y z vx vy vz
1 -1.80373e-06 2.35405e-06 3.39957e-05 4.76857 -18.5384 -83.07
2 3.42643e-05 -3.11658e-05 -2.09725e-06 -714.223 650.391 20.66
3 1.36125e-05 -1.37829e-05 -5.17549e-05 -318.161 314.819 123.914
ITEM: TIMESTEP
400
ITEM: NUMBER OF ATOMS
3
ITEM: BOX BOUNDS mm mm mm
-1.0000000000000000e-03 1.0000000000000000e-03
-1.0000000000000000e-03 1.0000000000000000e-03
-1.0000000000000000e-03 1.0000000000000000e-03
ITEM: ATOMS id x y z vx vy vz
1 1.43126e-06 -1.36829e-07 -3.66903e-05 -18.2315 16.1159 103.208
2 7.82486e-05 -7.14071e-05 2.70719e-06 -97.9791 90.2435 -27.0518
3 3.46569e-05 -3.39375e-05 4.82527e-05 -58.98 55.0318 -139.045
ITEM: TIMESTEP
410
ITEM: NUMBER OF ATOMS
3
ITEM: BOX BOUNDS mm mm mm
-1.0000000000000000e-03 1.0000000000000000e-03
-1.0000000000000000e-03 1.0000000000000000e-03
-1.0000000000000000e-03 1.0000000000000000e-03
ITEM: ATOMS id x y z vx vy vz
1 2.50921e-06 -1.6933e-06 3.14379e-05 0.666025 8.26273 -105.841
2 4.76415e-05 -4.3585e-05 -1.86691e-06 533.628 -486.179 26.5229
3 2.26673e-05 -2.19546e-05 -4.34903e-05 227.924 -224.263 142.573
ITEM: TIMESTEP
420
ITEM: NUMBER OF ATOMS
3
ITEM: BOX BOUNDS mm mm mm
-1.0000000000000000e-03 1.0000000000000000e-03
-1.0000000000000000e-03 1.0000000000000000e-03
-1.0000000000000000e-03 1.0000000000000000e-03
ITEM: ATOMS id x y z vx vy vz
1 1.26987e-06 -1.67684e-06 -2.68142e-05 25.0645 -13.9885 101.697
2 -2.37058e-05 2.14789e-05 4.08155e-07 616.22 -562.6 -29.4246
3 -8.82627e-06 8.84709e-06 3.50742e-05 285.067 -276.795 -134.993
ITEM: TIMESTEP
430
ITEM: NUMBER OF ATOMS
3
ITEM: BOX BOUNDS mm mm mm
-1.0000000000000000e-03 1.0000000000000000e-03
-1.0000000000000000e-03 1.0000000000000000e-03
-1.0000000000000000e-03 1.0000000000000000e-03
ITEM: ATOMS id x y z vx vy vz
1 -1.63791e-06 4.23442e-07 2.33569e-05 24.7006 -21.6818 -105.02
2 -6.56161e-05 5.99268e-05 4.40905e-06 129.476 -119.408 16.0717
3 -3.07435e-05 2.97776e-05 -3.6455e-05 81.2117 -75.7574 150.352
ITEM: TIMESTEP
440
ITEM: NUMBER OF ATOMS
3
ITEM: BOX BOUNDS mm mm mm
-1.0000000000000000e-03 1.0000000000000000e-03
-1.0000000000000000e-03 1.0000000000000000e-03
-1.0000000000000000e-03 1.0000000000000000e-03
ITEM: ATOMS id x y z vx vy vz
1 -3.41231e-06 2.49138e-06 -2.05297e-05 1.22673 -8.36055 102.312
2 -4.39121e-05 4.01907e-05 -5.66766e-06 -423.235 386.292 -14.853
3 -2.2732e-05 2.17054e-05 3.00322e-05 -187.214 183.303 -146.873
ITEM: TIMESTEP
450
ITEM: NUMBER OF ATOMS
3
ITEM: BOX BOUNDS mm mm mm
-1.0000000000000000e-03 1.0000000000000000e-03
-1.0000000000000000e-03 1.0000000000000000e-03
-1.0000000000000000e-03 1.0000000000000000e-03
ITEM: ATOMS id x y z vx vy vz
1 -1.76134e-06 1.87455e-06 2.12456e-05 -39.2302 30.3206 -126.913
2 1.55188e-05 -1.41579e-05 2.22588e-06 -517.654 475.197 29.8718
3 5.21892e-06 -5.3489e-06 -2.77415e-05 -270.605 256.792 153.902
ITEM: TIMESTEP
460
ITEM: NUMBER OF ATOMS
3
ITEM: BOX BOUNDS mm mm mm
-1.0000000000000000e-03 1.0000000000000000e-03
-1.0000000000000000e-03 1.0000000000000000e-03
-1.0000000000000000e-03 1.0000000000000000e-03
ITEM: ATOMS id x y z vx vy vz
1 2.50469e-06 -1.68692e-06 -1.82097e-05 -35.731 32.3381 123.935
2 5.37761e-05 -4.93662e-05 -5.47437e-06 -141.123 130.703 -24.7284
3 2.66997e-05 -2.55418e-05 2.35241e-05 -98.8419 90.9387 -153.053
ITEM: TIMESTEP
470
ITEM: NUMBER OF ATOMS
3
ITEM: BOX BOUNDS mm mm mm
-1.0000000000000000e-03 1.0000000000000000e-03
-1.0000000000000000e-03 1.0000000000000000e-03
-1.0000000000000000e-03 1.0000000000000000e-03
ITEM: ATOMS id x y z vx vy vz
1 5.30542e-06 -4.59293e-06 1.3322e-05 2.86159 1.89514 -113.445
2 3.84465e-05 -3.54405e-05 5.46169e-06 328.295 -300.445 27.5267
3 2.2282e-05 -2.09497e-05 -1.94858e-05 147.264 -142.186 136.386
ITEM: TIMESTEP
480
ITEM: NUMBER OF ATOMS
3
ITEM: BOX BOUNDS mm mm mm
-1.0000000000000000e-03 1.0000000000000000e-03
-1.0000000000000000e-03 1.0000000000000000e-03
-1.0000000000000000e-03 1.0000000000000000e-03
ITEM: ATOMS id x y z vx vy vz
1 2.73801e-06 -2.81325e-06 -1.20456e-05 44.4944 -36.3014 112.555
2 -9.58347e-06 8.73037e-06 -7.63359e-06 402.08 -374.36 -26.7549
3 -2.60497e-06 2.6383e-06 1.6375e-05 286.206 -264.401 -132.615
ITEM: TIMESTEP
490
ITEM: NUMBER OF ATOMS
3
ITEM: BOX BOUNDS mm mm mm
-1.0000000000000000e-03 1.0000000000000000e-03
-1.0000000000000000e-03 1.0000000000000000e-03
-1.0000000000000000e-03 1.0000000000000000e-03
ITEM: ATOMS id x y z vx vy vz
1 -2.52267e-06 1.73578e-06 8.76336e-06 48.0443 -43.8066 -106.631
2 -4.0347e-05 3.75021e-05 9.60045e-06 121.851 -114.491 22.8041
3 -2.70021e-05 2.49797e-05 -1.63367e-05 130.016 -117.99 126.797
ITEM: TIMESTEP
500
ITEM: NUMBER OF ATOMS
3
ITEM: BOX BOUNDS mm mm mm
-1.0000000000000000e-03 1.0000000000000000e-03
-1.0000000000000000e-03 1.0000000000000000e-03
-1.0000000000000000e-03 1.0000000000000000e-03
ITEM: ATOMS id x y z vx vy vz
1 -1.724e-05 1.79533e-05 -7.43484e-06 -61.0407 71.6754 61.8881
2 -3.00712e-05 2.8283e-05 -1.50574e-05 -245.205 230.429 -20.7915
3 -1.43834e-05 1.04481e-05 1.68606e-05 -61.3434 36.53 -80.1042
ITEM: TIMESTEP
510
ITEM: NUMBER OF ATOMS
3
ITEM: BOX BOUNDS mm mm mm
-1.0000000000000000e-03 1.0000000000000000e-03
-1.0000000000000000e-03 1.0000000000000000e-03
-1.0000000000000000e-03 1.0000000000000000e-03
ITEM: ATOMS id x y z vx vy vz
1 -3.17724e-06 2.14246e-06 1.45541e-05 -180.527 177.687 -92.3708
2 7.46254e-06 -7.02121e-06 1.23479e-05 -341.154 321.349 22.142
3 -2.5844e-06 3.16121e-06 -2.29322e-05 -121.777 93.7375 105.225
ITEM: TIMESTEP
520
ITEM: NUMBER OF ATOMS
3
ITEM: BOX BOUNDS mm mm mm
-1.0000000000000000e-03 1.0000000000000000e-03
-1.0000000000000000e-03 1.0000000000000000e-03
-1.0000000000000000e-03 1.0000000000000000e-03
ITEM: ATOMS id x y z vx vy vz
1 1.43688e-05 -1.45883e-05 -1.62509e-05 -115.939 102.235 89.0309
2 2.93687e-05 -2.70985e-05 -1.18553e-05 -94.7487 88.6454 -16.6215
3 1.42378e-05 -1.18725e-05 2.08966e-05 -100.618 95.9043 -103.406
ITEM: TIMESTEP
530
ITEM: NUMBER OF ATOMS
3
ITEM: BOX BOUNDS mm mm mm
-1.0000000000000000e-03 1.0000000000000000e-03
-1.0000000000000000e-03 1.0000000000000000e-03
-1.0000000000000000e-03 1.0000000000000000e-03
ITEM: ATOMS id x y z vx vy vz
1 1.81929e-05 -1.67441e-05 1.96938e-05 61.4163 -72.8981 -108.396
2 2.16698e-05 -2.01916e-05 9.873e-06 173.571 -159.861 17.4336
3 1.68045e-05 -1.54186e-05 -2.43608e-05 39.5806 -20.1812 118.022
ITEM: TIMESTEP
540
ITEM: NUMBER OF ATOMS
3
ITEM: BOX BOUNDS mm mm mm
-1.0000000000000000e-03 1.0000000000000000e-03
-1.0000000000000000e-03 1.0000000000000000e-03
-1.0000000000000000e-03 1.0000000000000000e-03
ITEM: ATOMS id x y z vx vy vz
1 4.27105e-06 -2.84434e-06 -2.43924e-05 168.857 -143.45 129.915
2 -5.85481e-06 5.14891e-06 -1.00776e-05 239.523 -222.209 -11.5049
3 5.54908e-06 -6.10818e-06 2.63413e-05 151.954 -150.537 -141.643
ITEM: TIMESTEP
550
ITEM: NUMBER OF ATOMS
3
ITEM: BOX BOUNDS mm mm mm
-1.0000000000000000e-03 1.0000000000000000e-03
-1.0000000000000000e-03 1.0000000000000000e-03
-1.0000000000000000e-03 1.0000000000000000e-03
ITEM: ATOMS id x y z vx vy vz
1 -1.0515e-05 7.32961e-06 2.23441e-05 136.807 -128.133 -136.377
2 -2.64192e-05 2.61041e-05 8.73334e-06 55.4201 -41.0674 10.0479
3 -1.08956e-05 1.04779e-05 -2.52439e-05 120.443 -118.842 145.883
ITEM: TIMESTEP
560
ITEM: NUMBER OF ATOMS
3
ITEM: BOX BOUNDS mm mm mm
-1.0000000000000000e-03 1.0000000000000000e-03
-1.0000000000000000e-03 1.0000000000000000e-03
-1.0000000000000000e-03 1.0000000000000000e-03
ITEM: ATOMS id x y z vx vy vz
1 -1.78424e-05 1.55532e-05 -2.08385e-05 -10.2632 -10.6136 134.573
2 -1.6926e-05 1.55161e-05 -6.5602e-06 -192.092 192.556 -21.5616
3 -1.70144e-05 1.6484e-05 1.89073e-05 5.06471 -0.19221 -129.066
ITEM: TIMESTEP
570
ITEM: NUMBER OF ATOMS
3
ITEM: BOX BOUNDS mm mm mm
-1.0000000000000000e-03 1.0000000000000000e-03
-1.0000000000000000e-03 1.0000000000000000e-03
-1.0000000000000000e-03 1.0000000000000000e-03
ITEM: ATOMS id x y z vx vy vz
1 -8.09783e-06 9.07124e-06 1.74035e-05 -139.707 115.041 -123.214
2 9.23581e-06 -1.00123e-05 6.89486e-06 -215.803 205.642 13.8316
3 -9.59887e-06 8.58484e-06 -1.83397e-05 -128.371 125.084 122.144
ITEM: TIMESTEP
580
ITEM: NUMBER OF ATOMS
3
ITEM: BOX BOUNDS mm mm mm
-1.0000000000000000e-03 1.0000000000000000e-03
-1.0000000000000000e-03 1.0000000000000000e-03
-1.0000000000000000e-03 1.0000000000000000e-03
ITEM: ATOMS id x y z vx vy vz
1 7.42956e-06 -2.79915e-06 -2.04149e-05 -137.428 146.228 200.791
2 2.33775e-05 -2.44171e-05 1.48092e-06 -27.6367 6.29203 -126.506
3 7.89999e-06 -8.59253e-06 1.0528e-05 -141.301 129.714 -83.9783
ITEM: TIMESTEP
590
ITEM: NUMBER OF ATOMS
3
ITEM: BOX BOUNDS mm mm mm
-1.0000000000000000e-03 1.0000000000000000e-03
-1.0000000000000000e-03 1.0000000000000000e-03
-1.0000000000000000e-03 1.0000000000000000e-03
ITEM: ATOMS id x y z vx vy vz
1 1.56092e-05 -2.18769e-05 1.20926e-05 -16.4326 2.8806 -164.329
2 1.33918e-05 -1.18383e-05 -1.79116e-06 139.264 -188.228 130.832
3 1.75721e-05 -9.34003e-06 -4.61219e-06 10.986 62.0703 40.3605
ITEM: TIMESTEP
600
ITEM: NUMBER OF ATOMS
3
ITEM: BOX BOUNDS mm mm mm
-1.0000000000000000e-03 1.0000000000000000e-03
-1.0000000000000000e-03 1.0000000000000000e-03
-1.0000000000000000e-03 1.0000000000000000e-03
ITEM: ATOMS id x y z vx vy vz
1 9.67119e-06 -1.03848e-05 -9.47957e-06 113.292 -159.462 151.823
2 -4.11151e-06 1.21117e-05 -5.2692e-07 156.596 -180.077 -130.502
3 5.85116e-06 -1.23895e-05 2.02811e-06 144.417 -42.1316 -25.6039
ITEM: TIMESTEP
610
ITEM: NUMBER OF ATOMS
3
ITEM: BOX BOUNDS mm mm mm
-1.0000000000000000e-03 1.0000000000000000e-03
-1.0000000000000000e-03 1.0000000000000000e-03
-1.0000000000000000e-03 1.0000000000000000e-03
ITEM: ATOMS id x y z vx vy vz
1 -5.4076e-06 9.97367e-06 6.36326e-06 134.307 -149.531 -142.666
2 -1.49943e-05 2.13052e-05 -4.53921e-07 48.9331 5.28198 117.54
3 -1.07243e-05 -2.75502e-06 -7.8102e-07 111.13 -126.935 27.0825
ITEM: TIMESTEP
620
ITEM: NUMBER OF ATOMS
3
ITEM: BOX BOUNDS mm mm mm
-1.0000000000000000e-03 1.0000000000000000e-03
-1.0000000000000000e-03 1.0000000000000000e-03
-1.0000000000000000e-03 1.0000000000000000e-03
ITEM: ATOMS id x y z vx vy vz
1 -1.5563e-05 1.79246e-05 -5.52623e-06 22.0408 15.0239 130.784
2 -1.13906e-05 8.93591e-06 -2.32835e-07 -53.6345 135.072 -97.5025
3 -1.48334e-05 1.14844e-05 -1.54886e-06 -50.751 -74.2376 -33.1662
ITEM: TIMESTEP
630
ITEM: NUMBER OF ATOMS
3
ITEM: BOX BOUNDS mm mm mm
-1.0000000000000000e-03 1.0000000000000000e-03
-1.0000000000000000e-03 1.0000000000000000e-03
-1.0000000000000000e-03 1.0000000000000000e-03
ITEM: ATOMS id x y z vx vy vz
1 -9.85235e-06 5.78959e-06 4.11927e-06 -114.916 147.713 -116.607
2 -4.5007e-06 -5.92623e-06 -4.97569e-06 -96.4168 104.296 80.7583
3 6.89733e-07 1.25731e-05 5.22702e-06 -140.264 71.8934 33.9141
ITEM: TIMESTEP
640
ITEM: NUMBER OF ATOMS
3
ITEM: BOX BOUNDS mm mm mm
-1.0000000000000000e-03 1.0000000000000000e-03
-1.0000000000000000e-03 1.0000000000000000e-03
-1.0000000000000000e-03 1.0000000000000000e-03
ITEM: ATOMS id x y z vx vy vz
1 6.07163e-06 -1.10123e-05 -4.89618e-06 -127.458 100.087 114.786
2 2.37777e-06 -4.96414e-06 -6.87524e-06 -165.308 72.3362 -62.3189
3 1.58992e-05 -6.60487e-06 5.2877e-06 14.4434 83.9766 -48.9581
ITEM: TIMESTEP
650
ITEM: NUMBER OF ATOMS
3
ITEM: BOX BOUNDS mm mm mm
-1.0000000000000000e-03 1.0000000000000000e-03
-1.0000000000000000e-03 1.0000000000000000e-03
-1.0000000000000000e-03 1.0000000000000000e-03
ITEM: ATOMS id x y z vx vy vz
1 1.43345e-05 -1.30987e-05 3.62461e-06 -13.6885 -42.6063 -102.935
2 1.90064e-05 -1.0566e-05 -2.96009e-06 -60.548 13.3845 47.5255
3 3.546e-06 -1.04673e-05 2.83459e-06 115.455 -8.75013 50.5638
ITEM: TIMESTEP
660
ITEM: NUMBER OF ATOMS
3
ITEM: BOX BOUNDS mm mm mm
-1.0000000000000000e-03 1.0000000000000000e-03
-1.0000000000000000e-03 1.0000000000000000e-03
-1.0000000000000000e-03 1.0000000000000000e-03
ITEM: ATOMS id x y z vx vy vz
1 8.46372e-06 -1.04701e-06 -6.13896e-06 96.1491 -103.412 95.3506
2 1.31793e-05 -8.40858e-06 -5.55168e-06 142.719 -90.5206 -52.8061
3 -6.85983e-06 -4.31375e-06 6.1082e-06 56.725 -78.3773 -36.5898
ITEM: TIMESTEP
670
ITEM: NUMBER OF ATOMS
3
ITEM: BOX BOUNDS mm mm mm
-1.0000000000000000e-03 1.0000000000000000e-03
-1.0000000000000000e-03 1.0000000000000000e-03
-1.0000000000000000e-03 1.0000000000000000e-03
ITEM: ATOMS id x y z vx vy vz
1 -5.25339e-06 7.64311e-06 6.80423e-06 105.923 -48.7816 -81.4358
2 -9.42893e-06 5.2904e-06 -2.85584e-06 142.822 -108.735 42.0703
3 -4.20821e-06 4.31843e-06 -1.36457e-06 10.8225 -81.6055 32.516
ITEM: TIMESTEP
680
ITEM: NUMBER OF ATOMS
3
ITEM: BOX BOUNDS mm mm mm
-1.0000000000000000e-03 1.0000000000000000e-03
-1.0000000000000000e-03 1.0000000000000000e-03
-1.0000000000000000e-03 1.0000000000000000e-03
ITEM: ATOMS id x y z vx vy vz
1 -1.39048e-05 4.13374e-06 -1.17356e-05 5.27508 0.985819 66.1674
2 -1.66219e-05 1.47016e-05 -3.28378e-06 -53.0708 20.7373 -22.2795
3 -2.03724e-06 1.10129e-05 1.03522e-05 38.8591 -13.4905 -36.3443
ITEM: TIMESTEP
690
ITEM: NUMBER OF ATOMS
3
ITEM: BOX BOUNDS mm mm mm
-1.0000000000000000e-03 1.0000000000000000e-03
-1.0000000000000000e-03 1.0000000000000000e-03