ITEM: TIMESTEP
0
ITEM: NUMBER OF ATOMS
3
ITEM: BOX BOUNDS mm mm mm
-1.0000000000000000e-03 1.0000000000000000e-03
-1.0000000000000000e-03 1.0000000000000000e-03
-1.0000000000000000e-03 1.0000000000000000e-03
ITEM: ATOMS id x y z vx vy vz
1 -4.29579e-05 0.000106954 -8.60393e-05 0 0 0
2 -0.000159064 -0.000147815 4.55184e-05 0 0 0
3 0.000356262 2.28089e-06 -0.000929591 0 0 0
ITEM: TIMESTEP
10
ITEM: NUMBER OF ATOMS
3
ITEM: BOX BOUNDS mm mm mm
-1.0000000000000000e-03 1.0000000000000000e-03
-1.0000000000000000e-03 1.0000000000000000e-03
-1.0000000000000000e-03 1.0000000000000000e-03
ITEM: ATOMS id x y z vx vy vz
1 8.5228e-06 -2.1936e-05 1.42669e-05 -174.593 436.509 138.88
2 3.21215e-05 2.98548e-05 -9.9381e-06 -647.827 -601.853 -76.8837
3 -7.25159e-05 -6.4996e-07 0.000171023 1453.25 9.93897 1522.44
ITEM: TIMESTEP
20
ITEM: NUMBER OF ATOMS
3
ITEM: BOX BOUNDS mm mm mm
-1.0000000000000000e-03 1.0000000000000000e-03
-1.0000000000000000e-03 1.0000000000000000e-03
-1.0000000000000000e-03 1.0000000000000000e-03
ITEM: ATOMS id x y z vx vy vz
1 3.55891e-05 -8.94927e-05 6.64058e-05 67.5076 -169.566 -60.2596
2 0.000132447 0.000123028 -3.90016e-05 251.24 233.63 33.1698
3 -0.000297639 -2.19062e-06 0.000739511 -563.184 -3.84808 -664.114
ITEM: TIMESTEP
30
ITEM: NUMBER OF ATOMS
3
ITEM: BOX BOUNDS mm mm mm
-1.0000000000000000e-03 1.0000000000000000e-03
-1.0000000000000000e-03 1.0000000000000000e-03
-1.0000000000000000e-03 1.0000000000000000e-03
ITEM: ATOMS id x y z vx vy vz
1 -2.18633e-05 5.43669e-05 -4.44062e-05 133.409 -332.893 -95.8812
2 -8.09345e-05 -7.52738e-05 2.22829e-05 494.382 459.117 53.2541
3 0.000180913 1.0806e-06 -0.00047646 -1109.37 -7.58896 -1048.49
ITEM: TIMESTEP
40
ITEM: NUMBER OF ATOMS
3
ITEM: BOX BOUNDS mm mm mm
-1.0000000000000000e-03 1.0000000000000000e-03
-1.0000000000000000e-03 1.0000000000000000e-03
-1.0000000000000000e-03 1.0000000000000000e-03
ITEM: ATOMS id x y z vx vy vz
1 -2.44363e-05 6.0288e-05 -4.22231e-05 -113.085 283.9 94.3396
2 -8.99954e-05 -8.35475e-05 2.15107e-05 -420.701 -391.178 -51.7905
3 0.000201514 1.22423e-06 -0.000445196 943.104 6.44236 1041.77
ITEM: TIMESTEP
50
ITEM: NUMBER OF ATOMS
3
ITEM: BOX BOUNDS mm mm mm
-1.0000000000000000e-03 1.0000000000000000e-03
-1.0000000000000000e-03 1.0000000000000000e-03
-1.0000000000000000e-03 1.0000000000000000e-03
ITEM: ATOMS id x y z vx vy vz
1 2.9064e-05 -7.32712e-05 5.44003e-05 -78.3822 193.486 43.766
2 0.000108313 0.000100634 -3.22093e-05 -288.461 -267.295 -25.0207
3 -0.000243437 -1.81837e-06 0.000610261 648.407 4.446 466.933
ITEM: TIMESTEP
60
ITEM: NUMBER OF ATOMS
3
ITEM: BOX BOUNDS mm mm mm
-1.0000000000000000e-03 1.0000000000000000e-03
-1.0000000000000000e-03 1.0000000000000000e-03
-1.0000000000000000e-03 1.0000000000000000e-03
ITEM: ATOMS id x y z vx vy vz
1 1.08149e-05 -2.68415e-05 1.07127e-05 133.77 -333.609 -101.658
2 3.98356e-05 3.67905e-05 -8.57773e-06 495.47 460.091 55.9937
3 -9.02561e-05 -7.74994e-07 0.000121817 -1111.82 -7.59939 -1119.82
ITEM: TIMESTEP
70
ITEM: NUMBER OF ATOMS
3
ITEM: BOX BOUNDS mm mm mm
-1.0000000000000000e-03 1.0000000000000000e-03
-1.0000000000000000e-03 1.0000000000000000e-03
-1.0000000000000000e-03 1.0000000000000000e-03
ITEM: ATOMS id x y z vx vy vz
1 -3.10956e-05 7.69194e-05 -5.5365e-05 20.1578 -46.9671 5.3202
2 -0.000114666 -0.000106467 2.85789e-05 71.5295 65.4888 -1.7624
3 0.000256841 1.60043e-06 -0.00059283 -162.295 -1.12755 78.5263
ITEM: TIMESTEP
80
ITEM: NUMBER OF ATOMS
3
ITEM: BOX BOUNDS mm mm mm
-1.0000000000000000e-03 1.0000000000000000e-03
-1.0000000000000000e-03 1.0000000000000000e-03
-1.0000000000000000e-03 1.0000000000000000e-03
ITEM: ATOMS id x y z vx vy vz
1 1.74735e-06 -5.72215e-06 1.11696e-05 -130.252 322.055 88.1604
2 7.66163e-06 7.33729e-06 -7.55307e-06 -479.743 -444.712 -49.6316
3 -1.72466e-05 -2.67092e-07 0.00014864 1077.95 7.37693 950.321
ITEM: TIMESTEP
90
ITEM: NUMBER OF ATOMS
3
ITEM: BOX BOUNDS mm mm mm
-1.0000000000000000e-03 1.0000000000000000e-03
-1.0000000000000000e-03 1.0000000000000000e-03
-1.0000000000000000e-03 1.0000000000000000e-03
ITEM: ATOMS id x y z vx vy vz
1 2.74957e-05 -6.80589e-05 4.17932e-05 31.6961 -82.3647 -42.525
2 0.000101234 9.37001e-05 -2.62106e-05 120.507 112.846 22.4622
3 -0.000228207 -1.71763e-06 0.000453263 -268.576 -1.81336 -484.044
ITEM: TIMESTEP
100
ITEM: NUMBER OF ATOMS
3
ITEM: BOX BOUNDS mm mm mm
-1.0000000000000000e-03 1.0000000000000000e-03
-1.0000000000000000e-03 1.0000000000000000e-03
-1.0000000000000000e-03 1.0000000000000000e-03
ITEM: ATOMS id x y z vx vy vz
1 -1.25523e-05 3.13161e-05 -3.01441e-05 107.215 -261.132 -59.4127
2 -4.65636e-05 -4.34146e-05 1.37275e-05 391.004 361.354 34.3908
3 0.000103642 5.46785e-07 -0.000331662 -880.558 -6.03333 -624.183
ITEM: TIMESTEP
110
ITEM: NUMBER OF ATOMS
3
ITEM: BOX BOUNDS mm mm mm
-1.0000000000000000e-03 1.0000000000000000e-03
-1.0000000000000000e-03 1.0000000000000000e-03
-1.0000000000000000e-03 1.0000000000000000e-03
ITEM: ATOMS id x y z vx vy vz
1 -2.06975e-05 4.95182e-05 -2.66727e-05 -70.2025 176.855 61.5002
2 -7.473e-05 -6.89728e-05 1.38664e-05 -261.555 -243.411 -32.6691
3 0.000167982 9.98013e-07 -0.00025678 585.784 3.97772 697.961
ITEM: TIMESTEP
120
ITEM: NUMBER OF ATOMS
3
ITEM: BOX BOUNDS mm mm mm
-1.0000000000000000e-03 1.0000000000000000e-03
-1.0000000000000000e-03 1.0000000000000000e-03
-1.0000000000000000e-03 1.0000000000000000e-03
ITEM: ATOMS id x y z vx vy vz
1 1.90711e-05 -4.81691e-05 3.76809e-05 -70.9955 169.172 30.3623
2 7.10887e-05 6.60183e-05 -2.39892e-05 -255.476 -234.98 -21.2501
3 -0.000159934 -1.24318e-06 0.000400681 577.431 3.98473 244.204
ITEM: TIMESTEP
130
ITEM: NUMBER OF ATOMS
3
ITEM: BOX BOUNDS mm mm mm
-1.0000000000000000e-03 1.0000000000000000e-03
-1.0000000000000000e-03 1.0000000000000000e-03
-1.0000000000000000e-03 1.0000000000000000e-03
ITEM: ATOMS id x y z vx vy vz
1 1.12363e-05 -2.67007e-05 7.32321e-06 91.4152 -227.36 -69.486
2 4.0274e-05 3.6854e-05 -8.55295e-06 337.875 313.562 39.947
3 -9.18735e-05 -7.9259e-07 4.78321e-05 -758.24 -5.16522 -720.111
ITEM: TIMESTEP
140
ITEM: NUMBER OF ATOMS
3
ITEM: BOX BOUNDS mm mm mm
-1.0000000000000000e-03 1.0000000000000000e-03
-1.0000000000000000e-03 1.0000000000000000e-03
-1.0000000000000000e-03 1.0000000000000000e-03
ITEM: ATOMS id x y z vx vy vz
1 -2.20787e-05 5.41113e-05 -3.86055e-05 29.7565 -65.7329 2.41316
2 -8.09315e-05 -7.50481e-05 2.06779e-05 102.245 92.5202 2.68199
3 0.000181248 1.08024e-06 -0.000376165 -234.037 -1.65105 99.6415
ITEM: TIMESTEP
150
ITEM: NUMBER OF ATOMS
3
ITEM: BOX BOUNDS mm mm mm
-1.0000000000000000e-03 1.0000000000000000e-03
-1.0000000000000000e-03 1.0000000000000000e-03
-1.0000000000000000e-03 1.0000000000000000e-03
ITEM: ATOMS id x y z vx vy vz
1 -2.15235e-06 2.8182e-06 6.35237e-06 -93.6987 235.668 63.6305
2 -5.69208e-06 -4.71943e-06 -3.56864e-06 -349.271 -324.735 -40.1448
3 1.33906e-05 -4.77998e-08 0.000118968 782.783 5.35516 589.861
ITEM: TIMESTEP
160
ITEM: NUMBER OF ATOMS
3
ITEM: BOX BOUNDS mm mm mm
-1.0000000000000000e-03 1.0000000000000000e-03
-1.0000000000000000e-03 1.0000000000000000e-03
-1.0000000000000000e-03 1.0000000000000000e-03
ITEM: ATOMS id x y z vx vy vz
1 2.00848e-05 -5.19925e-05 3.15561e-05 8.67773 -32.4885 -28.8418
2 7.62697e-05 7.11302e-05 -2.35206e-05 42.413 42.4313 13.8557
3 -0.000171016 -1.32771e-06 0.000275853 -89.2431 -0.544063 -345.014
ITEM: TIMESTEP
170
ITEM: NUMBER OF ATOMS
3
ITEM: BOX BOUNDS mm mm mm
-1.0000000000000000e-03 1.0000000000000000e-03
-1.0000000000000000e-03 1.0000000000000000e-03
-1.0000000000000000e-03 1.0000000000000000e-03
ITEM: ATOMS id x y z vx vy vz
1 -6.07047e-06 1.75242e-05 -2.12803e-05 81.0227 -205.379 -46.1571
2 -2.48387e-05 -2.38951e-05 8.6639e-06 303.876 282.862 32.1784
3 5.36234e-05 1.92607e-07 -0.000227852 -680.454 -4.67349 -368.029
ITEM: TIMESTEP
180
ITEM: NUMBER OF ATOMS
3
ITEM: BOX BOUNDS mm mm mm
-1.0000000000000000e-03 1.0000000000000000e-03
-1.0000000000000000e-03 1.0000000000000000e-03
-1.0000000000000000e-03 1.0000000000000000e-03
ITEM: ATOMS id x y z vx vy vz
1 -1.63651e-05 4.03639e-05 -2.19333e-05 -38.7666 110.794 43.4375
2 -6.0423e-05 -5.60921e-05 1.40975e-05 -157.123 -149.794 -23.4841
3 0.000135111 7.77641e-07 -0.00014614 344.949 2.27906 463.425
ITEM: TIMESTEP
190
ITEM: NUMBER OF ATOMS
3
ITEM: BOX BOUNDS mm mm mm
-1.0000000000000000e-03 1.0000000000000000e-03
-1.0000000000000000e-03 1.0000000000000000e-03
-1.0000000000000000e-03 1.0000000000000000e-03
ITEM: ATOMS id x y z vx vy vz
1 1.09951e-05 -3.31417e-05 2.53115e-05 -57.6547 146.822 24.0659
2 4.62428e-05 4.43186e-05 -1.72087e-05 -217.594 -202.526 -21.0956
3 -0.000101595 -8.32507e-07 0.000261158 487.527 3.40861 121.749
ITEM: TIMESTEP
200
ITEM: NUMBER OF ATOMS
3
ITEM: BOX BOUNDS mm mm mm
-1.0000000000000000e-03 1.0000000000000000e-03
-1.0000000000000000e-03 1.0000000000000000e-03
-1.0000000000000000e-03 1.0000000000000000e-03
ITEM: ATOMS id x y z vx vy vz
1 1.00193e-05 -2.49074e-05 6.6188e-06 55.9622 -162.631 -48.2898
2 3.71451e-05 3.42387e-05 -1.00748e-05 229.955 219.735 28.8514
3 -8.43551e-05 -7.52208e-07 1.17993e-05 -504.069 -3.36263 -460.029
ITEM: TIMESTEP
210
ITEM: NUMBER OF ATOMS
3
ITEM: BOX BOUNDS mm mm mm
-1.0000000000000000e-03 1.0000000000000000e-03
-1.0000000000000000e-03 1.0000000000000000e-03
-1.0000000000000000e-03 1.0000000000000000e-03
ITEM: ATOMS id x y z vx vy vz
1 -1.41961e-05 3.9926e-05 -2.79664e-05 31.4787 -69.8346 -2.24231
2 -5.71672e-05 -5.44465e-05 1.56816e-05 109.11 98.6429 8.58561
3 0.000125165 6.83795e-07 -0.000237513 -250.123 -1.82488 93.4382
ITEM: TIMESTEP
220
ITEM: NUMBER OF ATOMS
3
ITEM: BOX BOUNDS mm mm mm
-1.0000000000000000e-03 1.0000000000000000e-03
-1.0000000000000000e-03 1.0000000000000000e-03
-1.0000000000000000e-03 1.0000000000000000e-03
ITEM: ATOMS id x y z vx vy vz
1 -4.15454e-06 6.35386e-06 1.7263e-06 -62.4754 177.09 43.2528
2 -1.18432e-05 -9.98875e-06 7.04409e-07 -252.863 -240.352 -29.7365
3 2.80907e-05 7.30845e-08 8.99299e-05 556.875 3.76011 364.449
ITEM: TIMESTEP
230
ITEM: NUMBER OF ATOMS
3
ITEM: BOX BOUNDS mm mm mm
-1.0000000000000000e-03 1.0000000000000000e-03
-1.0000000000000000e-03 1.0000000000000000e-03
-1.0000000000000000e-03 1.0000000000000000e-03
ITEM: ATOMS id x y z vx vy vz
1 1.38385e-05 -4.00308e-05 2.05329e-05 -5.37341 -7.73091 -14.6882
2 5.67737e-05 5.3977e-05 -1.76094e-05 -0.195219 5.8392 2.63917
3 -0.00012549 -1.00989e-06 0.000166939 12.2438 0.247288 -240.778
ITEM: TIMESTEP
240
ITEM: NUMBER OF ATOMS
3
ITEM: BOX BOUNDS mm mm mm
-1.0000000000000000e-03 1.0000000000000000e-03
-1.0000000000000000e-03 1.0000000000000000e-03
-1.0000000000000000e-03 1.0000000000000000e-03
ITEM: ATOMS id x y z vx vy vz
1 -1.81101e-06 9.94233e-06 -1.21102e-05 58.8183 -160.275 -31.9788
2 -1.18503e-05 -1.2715e-05 1.6019e-06 231.909 218.754 25.6026
3 2.27518e-05 -4.94407e-08 -0.000154311 -513.865 -3.5095 -215.496
ITEM: TIMESTEP
250
ITEM: NUMBER OF ATOMS
3
ITEM: BOX BOUNDS mm mm mm
-1.0000000000000000e-03 1.0000000000000000e-03
-1.0000000000000000e-03 1.0000000000000000e-03
-1.0000000000000000e-03 1.0000000000000000e-03
ITEM: ATOMS id x y z vx vy vz
1 -1.24366e-05 3.22436e-05 -1.70422e-05 -16.9277 72.6178 24.4287
2 -4.76166e-05 -4.46178e-05 1.28348e-05 -91.4391 -93.4278 -9.57007
3 0.000105576 5.76938e-07 -8.256e-05 188.506 1.06777 304.344
ITEM: TIMESTEP
260
ITEM: NUMBER OF ATOMS
3
ITEM: BOX BOUNDS mm mm mm
-1.0000000000000000e-03 1.0000000000000000e-03
-1.0000000000000000e-03 1.0000000000000000e-03
-1.0000000000000000e-03 1.0000000000000000e-03
ITEM: ATOMS id x y z vx vy vz
1 5.70317e-06 -2.29652e-05 1.25576e-05 -46.7006 117.821 18.2048
2 2.94129e-05 2.9552e-05 -8.12237e-06 -175.961 -163.188 -20.3925
3 -6.20852e-05 -5.25684e-07 0.000168958 395.448 2.80165 57.8289
ITEM: TIMESTEP
270
ITEM: NUMBER OF ATOMS
3
ITEM: BOX BOUNDS mm mm mm
-1.0000000000000000e-03 1.0000000000000000e-03
-1.0000000000000000e-03 1.0000000000000000e-03
-1.0000000000000000e-03 1.0000000000000000e-03
ITEM: ATOMS id x y z vx vy vz
1 8.81966e-06 -2.05074e-05 6.77477e-06 32.6681 -116.072 -25.7624
2 3.15119e-05 2.85609e-05 -1.24757e-05 153.995 152.557 12.8561
3 -7.25534e-05 -6.9842e-07 -3.16994e-06 -326.618 -2.00675 -292.043
ITEM: TIMESTEP
280
ITEM: NUMBER OF ATOMS
3
ITEM: BOX BOUNDS mm mm mm
-1.0000000000000000e-03 1.0000000000000000e-03
-1.0000000000000000e-03 1.0000000000000000e-03
-1.0000000000000000e-03 1.0000000000000000e-03
ITEM: ATOMS id x y z vx vy vz
1 -8.9084e-06 2.91193e-05 -1.66737e-05 31.6112 -58.3574 -8.53755
2 -3.98017e-05 -3.89526e-05 8.32406e-06 99.1544 85.7629 17.2085
3 8.47143e-05 3.81009e-07 -0.000149641 -234.457 -1.86114 75.6134
ITEM: TIMESTEP
290
ITEM: NUMBER OF ATOMS
3
ITEM: BOX BOUNDS mm mm mm
-1.0000000000000000e-03 1.0000000000000000e-03
-1.0000000000000000e-03 1.0000000000000000e-03
-1.0000000000000000e-03 1.0000000000000000e-03
ITEM: ATOMS id x y z vx vy vz
1 -5.26586e-06 5.81198e-06 -4.39e-06 -41.522 129.569 22.8991
2 -1.30339e-05 -1.00887e-05 7.36578e-06 -179.472 -173.332 -17.6013
3 3.27334e-05 1.3828e-07 6.44175e-05 388.866 2.4074 225.999
ITEM: TIMESTEP
300
ITEM: NUMBER OF ATOMS
3
ITEM: BOX BOUNDS mm mm mm
-1.0000000000000000e-03 1.0000000000000000e-03
-1.0000000000000000e-03 1.0000000000000000e-03
-1.0000000000000000e-03 1.0000000000000000e-03
ITEM: ATOMS id x y z vx vy vz
1 9.68598e-06 -2.94205e-05 1.1428e-05 -14.3867 -2.89384 2.67222
2 4.11758e-05 3.93111e-05 -1.30033e-05 -17.683 -5.21209 -13.8603
3 -9.03922e-05 -7.3508e-07 0.000101626 61.8787 0.762529 -163.948
ITEM: TIMESTEP
310
ITEM: NUMBER OF ATOMS
3
ITEM: BOX BOUNDS mm mm mm
-1.0000000000000000e-03 1.0000000000000000e-03
-1.0000000000000000e-03 1.0000000000000000e-03
-1.0000000000000000e-03 1.0000000000000000e-03
ITEM: ATOMS id x y z vx vy vz
1 9.33354e-07 6.94517e-06 -1.48726e-06 44.5175 -115.285 -19.1688
2 -5.08742e-06 -7.55968e-06 -8.45618e-06 170.621 158.658 20.042
3 5.17591e-06 -2.19952e-07 -0.00010243 -379.951 -2.77109 -127.73
ITEM: TIMESTEP
320
ITEM: NUMBER OF ATOMS
3
ITEM: BOX BOUNDS mm mm mm
-1.0000000000000000e-03 1.0000000000000000e-03
-1.0000000000000000e-03 1.0000000000000000e-03
-1.0000000000000000e-03 1.0000000000000000e-03
ITEM: ATOMS id x y z vx vy vz
1 -9.74895e-06 2.33931e-05 -1.0697e-05 -1.4118 55.8564 0.891056
2 -3.60173e-05 -3.29616e-05 1.04104e-05 -54.6752 -65.0781 11.7547
3 8.03933e-05 4.55479e-07 -4.80108e-05 92.5611 0.236353 196.747
ITEM: TIMESTEP
330
ITEM: NUMBER OF ATOMS
3
ITEM: BOX BOUNDS mm mm mm
-1.0000000000000000e-03 1.0000000000000000e-03
-1.0000000000000000e-03 1.0000000000000000e-03
-1.0000000000000000e-03 1.0000000000000000e-03
ITEM: ATOMS id x y z vx vy vz
1 1.94386e-06 -1.74986e-05 -2.15779e-06 -38.8523 83.2627 11.5761
2 1.91835e-05 2.09786e-05 3.46995e-06 -134.251 -118.911 -20.9877
3 -3.65177e-05 -2.71284e-07 0.000109166 309.505 2.04611 29.4806
ITEM: TIMESTEP
340
ITEM: NUMBER OF ATOMS
3
ITEM: BOX BOUNDS mm mm mm
-1.0000000000000000e-03 1.0000000000000000e-03
-1.0000000000000000e-03 1.0000000000000000e-03
-1.0000000000000000e-03 1.0000000000000000e-03
ITEM: ATOMS id x y z vx vy vz
1 7.9382e-06 -1.37619e-05 4.63872e-06 13.1238 -92.3532 1.42343
2 2.45787e-05 2.04365e-05 -1.41109e-05 108.143 114.661 -9.17325
3 -5.92638e-05 -6.68296e-07 -5.74016e-06 -207.287 -1.11656 -185.116
ITEM: TIMESTEP
350
ITEM: NUMBER OF ATOMS
3
ITEM: BOX BOUNDS mm mm mm
-1.0000000000000000e-03 1.0000000000000000e-03
-1.0000000000000000e-03 1.0000000000000000e-03
-1.0000000000000000e-03 1.0000000000000000e-03
ITEM: ATOMS id x y z vx vy vz
1 -4.37141e-06 2.3053e-05 1.35624e-06 31.2914 -35.3397 -5.32083
2 -2.88146e-05 -2.95629e-05 -5.9585e-06 79.1038 59.7086 19.5138
3 5.65013e-05 1.8347e-07 -9.53039e-05 -201.706 -1.87465 52.4076
ITEM: TIMESTEP
360
ITEM: NUMBER OF ATOMS
3
ITEM: BOX BOUNDS mm mm mm
-1.0000000000000000e-03 1.0000000000000000e-03
-1.0000000000000000e-03 1.0000000000000000e-03
-1.0000000000000000e-03 1.0000000000000000e-03
ITEM: ATOMS id x y z vx vy vz
1 -6.23868e-06 1.32704e-06 -4.73839e-06 -15.9 111.516 -9.07963
2 -1.05553e-05 -5.58142e-06 9.89703e-06 -138.268 -140.345 3.59008
3 3.11321e-05 1.39464e-07 4.24381e-05 268.006 0.785498 145.966
ITEM: TIMESTEP
370
ITEM: NUMBER OF ATOMS
3
ITEM: BOX BOUNDS mm mm mm
-1.0000000000000000e-03 1.0000000000000000e-03
-1.0000000000000000e-03 1.0000000000000000e-03
-1.0000000000000000e-03 1.0000000000000000e-03
ITEM: ATOMS id x y z vx vy vz
1 4.12801e-06 -2.50416e-05 -9.58244e-06 -23.3971 -18.5943 1.97733
2 3.21829e-05 3.17247e-05 1.69074e-06 -14.2889 7.86146 -14.6183
3 -6.42176e-05 -3.91083e-07 6.55213e-05 77.0721 1.0301 -107.276
ITEM: TIMESTEP
380
ITEM: NUMBER OF ATOMS
3
ITEM: BOX BOUNDS mm mm mm
-1.0000000000000000e-03 1.0000000000000000e-03
-1.0000000000000000e-03 1.0000000000000000e-03
-1.0000000000000000e-03 1.0000000000000000e-03
ITEM: ATOMS id x y z vx vy vz
1 5.45806e-06 1.18625e-05 -6.48013e-06 10.2983 -113.957 7.50638
2 -5.7238e-06 -1.12302e-05 -3.75018e-06 146.919 144.516 4.49716
3 -3.11737e-06 -3.81652e-07 -6.6208e-05 -276.389 -1.20139 -83.1309
ITEM: TIMESTEP
390
ITEM: NUMBER OF ATOMS
3
ITEM: BOX BOUNDS mm mm mm
-1.0000000000000000e-03 1.0000000000000000e-03
-1.0000000000000000e-03 1.0000000000000000e-03
-1.0000000000000000e-03 1.0000000000000000e-03
ITEM: ATOMS id x y z vx vy vz
1 1.3998e-07 2.68223e-05 -5.13525e-06 34.0217 89.836 2.63102
2 -3.43373e-05 -3.39227e-05 1.12075e-05 -64.3503 -91.496 8.54565
3 5.99124e-05 1.82791e-07 -3.27695e-05 40.4192 -0.825821 125.324
ITEM: TIMESTEP
400
ITEM: NUMBER OF ATOMS
3
ITEM: BOX BOUNDS mm mm mm
-1.0000000000000000e-03 1.0000000000000000e-03
-1.0000000000000000e-03 1.0000000000000000e-03
-1.0000000000000000e-03 1.0000000000000000e-03
ITEM: ATOMS id x y z vx vy vz
1 -7.66441e-06 -2.56035e-05 -4.13817e-06 -4.27156 90.3265 -0.93471
2 2.12324e-05 2.65404e-05 2.41761e-06 -126.198 -115.211 -20.011
3 -2.14919e-05 4.32373e-07 7.11693e-05 235.392 -0.96255 23.8566
ITEM: TIMESTEP
410
ITEM: NUMBER OF ATOMS
3
ITEM: BOX BOUNDS mm mm mm
-1.0000000000000000e-03 1.0000000000000000e-03
-1.0000000000000000e-03 1.0000000000000000e-03
-1.0000000000000000e-03 1.0000000000000000e-03
ITEM: ATOMS id x y z vx vy vz
1 -4.69353e-07 -1.70257e-05 -1.37857e-05 -55.6418 -149.533 -8.88496
2 2.53835e-05 2.17786e-05 -1.45936e-06 138.872 158.874 8.58545
3 -4.64087e-05 -4.0528e-08 -1.03616e-06 -132.994 2.91854 -120.984
ITEM: TIMESTEP
420
ITEM: NUMBER OF ATOMS
3
ITEM: BOX BOUNDS mm mm mm
-1.0000000000000000e-03 1.0000000000000000e-03
-1.0000000000000000e-03 1.0000000000000000e-03
-1.0000000000000000e-03 1.0000000000000000e-03
ITEM: ATOMS id x y z vx vy vz
1 1.19941e-05 3.5886e-05 -5.1533e-06 8.50834 -38.2464 19.4699
2 -3.57283e-05 -3.92029e-05 6.04732e-06 77.2382 58.5124 3.5751
3 3.82016e-05 -8.29848e-07 -6.42598e-05 -162.324 -1.40114 27.3735
ITEM: TIMESTEP
430
ITEM: NUMBER OF ATOMS
3
ITEM: BOX BOUNDS mm mm mm
-1.0000000000000000e-03 1.0000000000000000e-03
-1.0000000000000000e-03 1.0000000000000000e-03
-1.0000000000000000e-03 1.0000000000000000e-03
ITEM: ATOMS id x y z vx vy vz
1 -4.56003e-06 -3.95743e-07 1.82004e-06 64.1499 167.479 -12.5623
2 -8.89769e-06 -3.62593e-06 7.76067e-06 -176.576 -179.865 -1.68523
3 2.64191e-05 2.45922e-07 2.29947e-05 187.461 -6.09905 98.8577
ITEM: TIMESTEP
440
ITEM: NUMBER OF ATOMS
3
ITEM: BOX BOUNDS mm mm mm
-1.0000000000000000e-03 1.0000000000000000e-03
-1.0000000000000000e-03 1.0000000000000000e-03
-1.0000000000000000e-03 1.0000000000000000e-03
ITEM: ATOMS id x y z vx vy vz
1 -1.44863e-05 -3.73341e-05 -1.54395e-05 -31.4319 -35.2286 -5.15376
2 4.14125e-05 4.04144e-05 1.57504e-06 0.457636 22.0265 -13.4583
3 -4.62214e-05 1.09024e-06 4.5929e-05 71.9025 3.11948 -62.6748
ITEM: TIMESTEP
450
ITEM: NUMBER OF ATOMS
3
ITEM: BOX BOUNDS mm mm mm
-1.0000000000000000e-03 1.0000000000000000e-03
-1.0000000000000000e-03 1.0000000000000000e-03
-1.0000000000000000e-03 1.0000000000000000e-03
ITEM: ATOMS id x y z vx vy vz
1 9.66705e-06 1.60732e-05 -7.35185e-06 -54.4706 -144.888 20.6398
2 -9.65603e-06 -1.3846e-05 -5.08276e-06 172.47 161.589 3.07716
3 -5.46497e-06 -1.46639e-06 -3.96298e-05 -202.335 4.07578 -62.6
ITEM: TIMESTEP
460
ITEM: NUMBER OF ATOMS
3
ITEM: BOX BOUNDS mm mm mm
-1.0000000000000000e-03 1.0000000000000000e-03
-1.0000000000000000e-03 1.0000000000000000e-03
-1.0000000000000000e-03 1.0000000000000000e-03
ITEM: ATOMS id x y z vx vy vz
1 1.72347e-05 3.27639e-05 1.235e-05 76.5602 112.795 18.4614
2 -4.32227e-05 -3.72306e-05 1.10598e-06 -99.2626 -105.038 -5.7941
3 4.46399e-05 -7.10938e-07 -2.8323e-05 17.9217 -6.57897 75.7849
ITEM: TIMESTEP
470
ITEM: NUMBER OF ATOMS
3
ITEM: BOX BOUNDS mm mm mm
-1.0000000000000000e-03 1.0000000000000000e-03
-1.0000000000000000e-03 1.0000000000000000e-03
-1.0000000000000000e-03 1.0000000000000000e-03
ITEM: ATOMS id x y z vx vy vz
1 -1.9516e-05 -3.16931e-05 8.18598e-06 54.4351 109.395 -25.1811
2 3.03304e-05 2.98217e-05 -7.999e-06 -154.992 -126.857 -6.79824
3 -1.41177e-05 2.10238e-06 4.26645e-05 179.416 -1.96444 27.5289
ITEM: TIMESTEP
480
ITEM: NUMBER OF ATOMS
3
ITEM: BOX BOUNDS mm mm mm
-1.0000000000000000e-03 1.0000000000000000e-03
-1.0000000000000000e-03 1.0000000000000000e-03
-1.0000000000000000e-03 1.0000000000000000e-03
ITEM: ATOMS id x y z vx vy vz
1 -9.742e-06 -1.78396e-05 -1.44651e-05 -107.275 -160.913 -19.8328
2 2.8884e-05 2.1842e-05 -7.67078e-06 174.544 157.49 18.3631
3 -3.59725e-05 -4.38895e-07 7.07123e-06 -93.3798 9.85537 -74.3541
ITEM: TIMESTEP
490
ITEM: NUMBER OF ATOMS
3
ITEM: BOX BOUNDS mm mm mm
-1.0000000000000000e-03 1.0000000000000000e-03
-1.0000000000000000e-03 1.0000000000000000e-03
-1.0000000000000000e-03 1.0000000000000000e-03
ITEM: ATOMS id x y z vx vy vz
1 2.40506e-05 3.82359e-05 -9.72105e-06 -18.3994 -36.6961 26.6736
2 -4.39209e-05 -3.85487e-05 1.12594e-05 84.3949 58.9263 9.58894
3 2.83159e-05 -2.35042e-06 -4.20512e-05 -127.914 -6.97664 0.770752
ITEM: TIMESTEP
500
ITEM: NUMBER OF ATOMS
3
ITEM: BOX BOUNDS mm mm mm
-1.0000000000000000e-03 1.0000000000000000e-03
-1.0000000000000000e-03 1.0000000000000000e-03
-1.0000000000000000e-03 1.0000000000000000e-03
ITEM: ATOMS id x y z vx vy vz
1 -1.398e-06 -1.13207e-06 1.26147e-05 105.333 163.664 13.2478
2 -8.63355e-06 -4.17033e-06 5.38885e-06 -199.088 -165.933 -21.7887
3 2.10612e-05 2.00253e-06 3.51986e-06 141.527 -9.49974 59.0291
ITEM: TIMESTEP
510
ITEM: NUMBER OF ATOMS
3
ITEM: BOX BOUNDS mm mm mm
-1.0000000000000000e-03 1.0000000000000000e-03
-1.0000000000000000e-03 1.0000000000000000e-03
-1.0000000000000000e-03 1.0000000000000000e-03
ITEM: ATOMS id x y z vx vy vz
1 -2.23017e-05 -3.53451e-05 5.35181e-06 -23.3441 -40.8204 -28.5908
2 4.57432e-05 3.67702e-05 -1.7609e-05 5.62189 16.3372 -8.20322
3 -3.64912e-05 1.207e-06 2.90569e-05 55.8008 15.1026 -17.8196
ITEM: TIMESTEP
520
ITEM: NUMBER OF ATOMS
3
ITEM: BOX BOUNDS mm mm mm
-1.0000000000000000e-03 1.0000000000000000e-03
-1.0000000000000000e-03 1.0000000000000000e-03
-1.0000000000000000e-03 1.0000000000000000e-03
ITEM: ATOMS id x y z vx vy vz
1 9.58669e-06 1.70749e-05 -1.58727e-05 -87.0487 -131.617 -3.44845
2 -1.17475e-05 -1.16609e-05 -7.16067e-06 186.014 143.837 27.5801
3 -3.94283e-06 -4.49318e-06 -1.26462e-05 -157.304 2.15182 -44.6655
ITEM: TIMESTEP
530
ITEM: NUMBER OF ATOMS
3
ITEM: BOX BOUNDS mm mm mm
-1.0000000000000000e-03 1.0000000000000000e-03
-1.0000000000000000e-03 1.0000000000000000e-03
-1.0000000000000000e-03 1.0000000000000000e-03
ITEM: ATOMS id x y z vx vy vz
1 1.58428e-05 2.34842e-05 -3.03669e-06 52.0729 98.7927 26.8974
2 -3.79071e-05 -2.79407e-05 2.02554e-05 -86.77 -74.7752 5.53296
3 3.52643e-05 6.21949e-07 -2.58218e-05 22.4716 -21.0058 24.5556
ITEM: TIMESTEP
540
ITEM: NUMBER OF ATOMS
3
ITEM: BOX BOUNDS mm mm mm
-1.0000000000000000e-03 1.0000000000000000e-03
-1.0000000000000000e-03 1.0000000000000000e-03
-1.0000000000000000e-03 1.0000000000000000e-03
ITEM: ATOMS id x y z vx vy vz
1 -1.58661e-05 -2.70888e-05 1.14319e-05 61.7845 70.4848 -5.87039
2 2.90394e-05 2.17873e-05 2.92877e-06 -144.043 -97.3379 -30.3027
3 -1.37763e-05 4.86725e-06 1.1349e-05 140.255 12.5657 29.3346
ITEM: TIMESTEP
550
ITEM: NUMBER OF ATOMS
3
ITEM: BOX BOUNDS mm mm mm
-1.0000000000000000e-03 1.0000000000000000e-03
-1.0000000000000000e-03 1.0000000000000000e-03
-1.0000000000000000e-03 1.0000000000000000e-03
ITEM: ATOMS id x y z vx vy vz
1 -9.98971e-06 -7.6578e-06 -6.13747e-06 -71.1459 -119.906 -20.2123
2 2.44082e-05 1.55556e-05 -2.42257e-05 150.329 106.603 -5.31443
3 -2.73142e-05 -5.3037e-06 1.7279e-05 -90.4334 16.0751 -21.5885
ITEM: TIMESTEP
560
ITEM: NUMBER OF ATOMS
3
ITEM: BOX BOUNDS mm mm mm
-1.0000000000000000e-03 1.0000000000000000e-03
-1.0000000000000000e-03 1.0000000000000000e-03
-1.0000000000000000e-03 1.0000000000000000e-03
ITEM: ATOMS id x y z vx vy vz
1 1.91239e-05 2.59802e-05 -1.3743e-05 -33.2796 2.44014 8.24608
2 -4.17845e-05 -2.52594e-05 -2.5352e-06 72.8817 40.7575 35.0632
3 2.71198e-05 -2.40204e-06 -1.00285e-05 -88.2139 -31.2222 -16.7165
ITEM: TIMESTEP
570
ITEM: NUMBER OF ATOMS
3
ITEM: BOX BOUNDS mm mm mm
-1.0000000000000000e-03 1.0000000000000000e-03
-1.0000000000000000e-03 1.0000000000000000e-03
-1.0000000000000000e-03 1.0000000000000000e-03
ITEM: ATOMS id x y z vx vy vz
1 4.23039e-06 -8.21178e-06 6.04892e-06 77.2235 93.4679 20.8653
2 -6.38966e-06 -3.28617e-06 2.12132e-05 -184.266 -107.659 -1.00014
3 1.11364e-05 8.70371e-06 -1.36853e-05 136.102 7.03249 9.94295
ITEM: TIMESTEP
580
ITEM: NUMBER OF ATOMS
3
ITEM: BOX BOUNDS mm mm mm
-1.0000000000000000e-03 1.0000000000000000e-03
-1.0000000000000000e-03 1.0000000000000000e-03
-1.0000000000000000e-03 1.0000000000000000e-03
ITEM: ATOMS id x y z vx vy vz
1 -1.842e-05 -1.60998e-05 1.35333e-05 6.98125 -53.0974 -4.18312
2 4.24981e-05 2.28963e-05 -4.58847e-06 15.3377 9.03153 -38.2491
3 -3.26945e-05 -5.25666e-06 -1.16417e-06 10.8402 35.8971 6.0313
ITEM: TIMESTEP
590
ITEM: NUMBER OF ATOMS
3
ITEM: BOX BOUNDS mm mm mm
-1.0000000000000000e-03 1.0000000000000000e-03
-1.0000000000000000e-03 1.0000000000000000e-03
-1.0000000000000000e-03 1.0000000000000000e-03
ITEM: ATOMS id x y z vx vy vz
1 -1.61047e-06 1.47259e-05 9.93528e-07 -77.6398 -38.366 -14.2547
2 -1.30112e-05 -7.19907e-06 -2.36422e-05 168.085 91.1631 10.5875
3 8.67896e-06 -6.64562e-06 -2.10467e-06 -129.796 -43.1031 -6.64006
ITEM: TIMESTEP
600
ITEM: NUMBER OF ATOMS
3
ITEM: BOX BOUNDS mm mm mm
-1.0000000000000000e-03 1.0000000000000000e-03
-1.0000000000000000e-03 1.0000000000000000e-03
-1.0000000000000000e-03 1.0000000000000000e-03
ITEM: ATOMS id x y z vx vy vz
1 2.0363e-05 4.78032e-07 -6.966e-06 0.14609 43.2149 -2.89861
2 -3.43669e-05 -1.8843e-05 5.84154e-06 -93.3224 -52.2423 37.3495
3 2.30934e-05 1.55431e-05 -4.32174e-06 78.1047 12.7403 2.05536
ITEM: TIMESTEP
610
ITEM: NUMBER OF ATOMS
3
ITEM: BOX BOUNDS mm mm mm
-1.0000000000000000e-03 1.0000000000000000e-03
-1.0000000000000000e-03 1.0000000000000000e-03
-1.0000000000000000e-03 1.0000000000000000e-03
ITEM: ATOMS id x y z vx vy vz
1 -4.48465e-06 -4.93015e-06 -8.07987e-06 101.027 1.18642 -1.57284
2 2.75685e-05 1.52478e-05 1.98963e-05 -118.954 -64.5722 -16.3224
3 -2.22452e-05 -1.1107e-05 2.90799e-06 59.6852 53.0988 11.0112
ITEM: TIMESTEP
620
ITEM: NUMBER OF ATOMS
3
ITEM: BOX BOUNDS mm mm mm
-1.0000000000000000e-03 1.0000000000000000e-03
-1.0000000000000000e-03 1.0000000000000000e-03
-1.0000000000000000e-03 1.0000000000000000e-03
ITEM: ATOMS id x y z vx vy vz
1 -2.26038e-05 -1.24174e-07 -1.05712e-05 -50.3427 -11.5197 -3.53725
2 1.78148e-05 1.06514e-05 -8.14239e-06 132.095 85.6088 -60.9639
3 -4.91033e-06 -8.72055e-06 7.65235e-06 -84.1274 -73.5039 35.4117
ITEM: TIMESTEP
630
ITEM: NUMBER OF ATOMS
3
ITEM: BOX BOUNDS mm mm mm
-1.0000000000000000e-03 1.0000000000000000e-03
-1.0000000000000000e-03 1.0000000000000000e-03
-1.0000000000000000e-03 1.0000000000000000e-03
ITEM: ATOMS id x y z vx vy vz
1 1.64201e-05 1.77945e-06 -4.08056e-06 -79.1515 -0.239443 13.3277
2 -3.27507e-05 -2.08102e-05 -3.38091e-05 45.1462 25.7482 22.0721
3 1.82381e-05 1.79781e-05 2.03577e-05 -3.20751 -16.3415 -16.6408
ITEM: TIMESTEP
640
ITEM: NUMBER OF ATOMS
3
ITEM: BOX BOUNDS mm mm mm
-1.0000000000000000e-03 1.0000000000000000e-03
-1.0000000000000000e-03 1.0000000000000000e-03
-1.0000000000000000e-03 1.0000000000000000e-03
ITEM: ATOMS id x y z vx vy vz
1 1.14311e-05 2.71207e-06 3.66738e-06 91.9502 9.57758 0.162654
2 -1.34864e-06 -3.29244e-07 1.25346e-05 -136.735 -83.8763 52.5745
3 -3.03789e-06 -4.70097e-06 -8.23663e-06 61.3348 70.2216 -35.3556
ITEM: TIMESTEP
650
ITEM: NUMBER OF ATOMS
3
ITEM: BOX BOUNDS mm mm mm
-1.0000000000000000e-03 1.0000000000000000e-03
-1.0000000000000000e-03 1.0000000000000000e-03
-1.0000000000000000e-03 1.0000000000000000e-03
ITEM: ATOMS id x y z vx vy vz
1 -2.41477e-05 -3.50248e-06 1.25414e-06 21.6592 11.5079 -4.39148
2 3.02497e-05 1.80273e-05 2.7322e-05 24.9153 16.8159 -32.2573
3 -1.16415e-05 -1.37429e-05 -2.60591e-05 -18.9898 -35.1193 12.5634
ITEM: TIMESTEP
660
ITEM: NUMBER OF ATOMS
3
ITEM: BOX BOUNDS mm mm mm
-1.0000000000000000e-03 1.0000000000000000e-03
-1.0000000000000000e-03 1.0000000000000000e-03
-1.0000000000000000e-03 1.0000000000000000e-03
ITEM: ATOMS id x y z vx vy vz
1 4.55823e-06 -3.26451e-06 -1.47427e-06 -101.269 -30.4253 1.55873
2 -1.36091e-05 -8.3642e-06 -1.65597e-05 118.753 69.3631 -35.5895
3 3.68383e-06 1.23681e-05 5.1347e-07 -43.2578 -32.5885 29.2695
ITEM: TIMESTEP
670
ITEM: NUMBER OF ATOMS
3
ITEM: BOX BOUNDS mm mm mm
-1.0000000000000000e-03 1.0000000000000000e-03
-1.0000000000000000e-03 1.0000000000000000e-03
-1.0000000000000000e-03 1.0000000000000000e-03
ITEM: ATOMS id x y z vx vy vz
1 2.01229e-05 9.8605e-06 -4.22771e-06 51.9114 4.86713 -6.13937
2 -2.26124e-05 -1.31729e-05 -2.32228e-05 -81.2079 -48.3855 28.0404
3 8.54692e-06 1.23743e-06 2.34728e-05 14.0682 47.2698 1.35476
ITEM: TIMESTEP
680
ITEM: NUMBER OF ATOMS
3
ITEM: BOX BOUNDS mm mm mm
-1.0000000000000000e-03 1.0000000000000000e-03
-1.0000000000000000e-03 1.0000000000000000e-03
-1.0000000000000000e-03 1.0000000000000000e-03
ITEM: ATOMS id x y z vx vy vz
1 -1.75671e-05 -1.1054e-05 -2.30225e-05 70.5823 63.6359 -20.2773
2 2.44345e-05 2.01255e-05 2.7953e-05 -76.1723 -64.4579 45.5181
3 -5.38266e-06 -1.002e-05 2.79333e-06 35.0102 -6.42556 -31.213
ITEM: TIMESTEP
690
ITEM: NUMBER OF ATOMS
3
ITEM: BOX BOUNDS mm mm mm
-1.0000000000000000e-03 1.0000000000000000e-03
-1.0000000000000000e-03 1.0000000000000000e-03