LAMMPS (23 Jun 2022)
##################################################################
# LAMMPS input file generated using pylion 0.5.3
# simulation name: test
#
# pylion is written and maintained by Dimitris Trypogeorgos
# and Elliot Bentine. Download it from
# https://bitbucket.org/dtrypogeorgos/pylion
#
# If you find it useful please cite <paper>.
##################################################################



units si
atom_style charge

# Creating simulation box...
boundary m m m
region simulationDomain block -0.001  0.001 -0.001 0.001 -0.001 0.001 units box
create_box 1 simulationDomain
Created orthogonal box = (-0.001 -0.001 -0.001) to (0.001 0.001 0.001)
  1 by 1 by 1 MPI processor grid

# Configure neighbour list...
neighbor 1 nsq
neigh_modify once yes

# Configure pairwise interactions for long range Coulombics only...
pair_style coul/cut 10
pair_coeff * *

# Placing individual ions...


create_atoms 1 single -4.295787624850045e-05 0.00010695447104831246 -8.603934523971378e-05 units box
Created 1 atoms
  using box units in orthogonal box = (-0.001 -0.001 -0.001) to (0.001 0.001 0.001)
  create_atoms CPU = 0.000 seconds

create_atoms 1 single -0.0001590637783223241 -0.00014781504025364146 4.55183951674216e-05 units box
Created 1 atoms
  using box units in orthogonal box = (-0.001 -0.001 -0.001) to (0.001 0.001 0.001)
  create_atoms CPU = 0.000 seconds

create_atoms 1 single 0.00035626238405837103 2.2808936429025298e-06 -0.0009295905292564923 units box
Created 1 atoms
  using box units in orthogonal box = (-0.001 -0.001 -0.001) to (0.001 0.001 0.001)
  create_atoms CPU = 0.000 seconds


# Species...
mass 1 1.4944851e-26
set type 1 charge 1.6021764599999998e-19
Setting atom values ...
  3 settings made for charge
group 1 type 1
3 atoms in group 1



# Configuring additional output to flush buffer during simulation...
thermo 10000
thermo_style custom step cpu
thermo_modify flush yes

# Time integration...

group nonRigidBody union all
3 atoms in group nonRigidBody

fix timeIntegrator nonRigidBody nve



dump 9830048299 all custom 10 /Users/michaelmitchell/qlicS/data/2024-07-15_12-53-30/positions.txt id x y z vx vy vz





# Pseudopotential approximation for Linear Paul trap... (fixID=10307191822)


# SHO

variable k_x10307191822		equal 2.973789e-13

variable k_y10307191822		equal 2.973789e-13

variable k_z10307191822		equal 4.835556e-14

variable fX10307191822 atom "-v_k_x10307191822 * x"

variable fY10307191822 atom "-v_k_y10307191822 * y"

variable fZ10307191822 atom "-v_k_z10307191822 * z"

variable E10307191822 atom "v_k_x10307191822 * x * x /         2 + v_k_y10307191822 * y * y / 2 + v_k_z10307191822 * z * z / 2"

fix 10307191822 1 addforce         v_fX10307191822 v_fY10307191822 v_fZ10307191822 energy v_E10307191822




variable coolx atom (9.269386030594033e-20+(2.703426035144626e-21*vx))*-0.5000000000000001
variable cooly atom (9.269386030594033e-20+2.703426035144626e-21*vy)*-0.5000000000000001
variable coolz atom (9.269386030594033e-20+2.703426035144626e-21*vz)*-0.7071067811865476
fix 569202603907002 1 addforce v_coolx v_cooly v_coolz



timestep 1e-07


# Run simulation

run 50000
Generated 0 of 0 mixed pair_coeff terms from geometric mixing rule
Neighbor list info ...
  update every 1 steps, delay 10 steps, check yes
  max neighbors/atom: 2000, page size: 100000
  master list distance cutoff = 11
  ghost atom cutoff = 11
  1 neighbor lists, perpetual/occasional/extra = 1 0 0
  (1) pair coul/cut, perpetual
      attributes: half, newton on
      pair build: half/nsq/newton
      stencil: none
      bin: none
WARNING: Proc sub-domain size < neighbor skin, could lead to lost atoms (src/domain.cpp:970)
Per MPI rank memory allocation (min/avg/max) = 5.28 | 5.28 | 5.28 Mbytes
   Step          CPU      
         0   0            
     10000   0.34466586   
     20000   0.70209134   
     30000   1.0508606    
     40000   1.4024683    
     50000   1.7490726    
Loop time of 1.7491 on 1 procs for 50000 steps with 3 atoms

97.6% CPU use with 1 MPI tasks x no OpenMP threads

MPI task timing breakdown:
Section |  min time  |  avg time  |  max time  |%varavg| %total
---------------------------------------------------------------
Pair    | 0.0092288  | 0.0092288  | 0.0092288  |   0.0 |  0.53
Neigh   | 0          | 0          | 0          |   0.0 |  0.00
Comm    | 0.0075804  | 0.0075804  | 0.0075804  |   0.0 |  0.43
Output  | 0.080015   | 0.080015   | 0.080015   |   0.0 |  4.57
Modify  | 1.6397     | 1.6397     | 1.6397     |   0.0 | 93.74
Other   |            | 0.01261    |            |       |  0.72

Nlocal:              3 ave           3 max           3 min
Histogram: 1 0 0 0 0 0 0 0 0 0
Nghost:              0 ave           0 max           0 min
Histogram: 1 0 0 0 0 0 0 0 0 0
Neighs:              3 ave           3 max           3 min
Histogram: 1 0 0 0 0 0 0 0 0 0

Total # of neighbors = 3
Ave neighs/atom = 1
Neighbor list builds = 0
Dangerous builds = 0


Total wall time: 0:00:01
