LAMMPS (23 Jun 2022)
##################################################################
# LAMMPS input file generated using pylion 0.5.3
# simulation name: test
#
# pylion is written and maintained by Dimitris Trypogeorgos
# and Elliot Bentine. Download it from
# https://bitbucket.org/dtrypogeorgos/pylion
#
# If you find it useful please cite <paper>.
##################################################################



units si
atom_style charge

# Creating simulation box...
boundary m m m
region simulationDomain block -0.001  0.001 -0.001 0.001 -0.001 0.001 units box
create_box 1 simulationDomain
Created orthogonal box = (-0.001 -0.001 -0.001) to (0.001 0.001 0.001)
  1 by 1 by 1 MPI processor grid

# Configure neighbour list...
neighbor 1 nsq
neigh_modify once yes

# Configure pairwise interactions for long range Coulombics only...
pair_style coul/cut 10
pair_coeff * *

# Placing individual ions...


create_atoms 1 single -0.00020400543413616587 -0.0005736673388311132 0.0003230833927082768 units box
Created 1 atoms
  using box units in orthogonal box = (-0.001 -0.001 -0.001) to (0.001 0.001 0.001)
  create_atoms CPU = 0.000 seconds

create_atoms 1 single 4.118553145004569e-06 2.344401376889964e-06 -0.00015478984146773182 units box
Created 1 atoms
  using box units in orthogonal box = (-0.001 -0.001 -0.001) to (0.001 0.001 0.001)
  create_atoms CPU = 0.000 seconds

create_atoms 1 single -0.0006274612201239974 -0.00047127947974692086 -0.00027946125680470315 units box
Created 1 atoms
  using box units in orthogonal box = (-0.001 -0.001 -0.001) to (0.001 0.001 0.001)
  create_atoms CPU = 0.000 seconds

create_atoms 1 single 5.725638377525395e-05 -8.041906900186281e-05 1.6779723397716356e-05 units box
Created 1 atoms
  using box units in orthogonal box = (-0.001 -0.001 -0.001) to (0.001 0.001 0.001)
  create_atoms CPU = 0.000 seconds

create_atoms 1 single -0.00011263582408172264 0.00042345148896041516 -0.00045687814675657117 units box
Created 1 atoms
  using box units in orthogonal box = (-0.001 -0.001 -0.001) to (0.001 0.001 0.001)
  create_atoms CPU = 0.000 seconds

create_atoms 1 single -0.00022003391540764962 -4.503272436965235e-06 -0.00012663671853538688 units box
Created 1 atoms
  using box units in orthogonal box = (-0.001 -0.001 -0.001) to (0.001 0.001 0.001)
  create_atoms CPU = 0.000 seconds

create_atoms 1 single 1.4302014367222028e-05 1.2551647882181832e-05 0.00019085832278023756 units box
Created 1 atoms
  using box units in orthogonal box = (-0.001 -0.001 -0.001) to (0.001 0.001 0.001)
  create_atoms CPU = 0.000 seconds

create_atoms 1 single 2.113665390938588e-05 -7.465830414767154e-05 -0.00018189794119898562 units box
Created 1 atoms
  using box units in orthogonal box = (-0.001 -0.001 -0.001) to (0.001 0.001 0.001)
  create_atoms CPU = 0.000 seconds

create_atoms 1 single 0.00010077766800174886 -0.0007442605566334101 -0.00032617751460747797 units box
Created 1 atoms
  using box units in orthogonal box = (-0.001 -0.001 -0.001) to (0.001 0.001 0.001)
  create_atoms CPU = 0.000 seconds

create_atoms 1 single 0.00041072325070227105 0.000718296276494721 -0.0002597915333261409 units box
Created 1 atoms
  using box units in orthogonal box = (-0.001 -0.001 -0.001) to (0.001 0.001 0.001)
  create_atoms CPU = 0.000 seconds

create_atoms 1 single -4.469688658717e-05 0.00013004107991853507 0.00019724240401204312 units box
Created 1 atoms
  using box units in orthogonal box = (-0.001 -0.001 -0.001) to (0.001 0.001 0.001)
  create_atoms CPU = 0.000 seconds

create_atoms 1 single -5.510968113154346e-05 -9.596860845250422e-06 -0.0008329704484312591 units box
Created 1 atoms
  using box units in orthogonal box = (-0.001 -0.001 -0.001) to (0.001 0.001 0.001)
  create_atoms CPU = 0.000 seconds

create_atoms 1 single 2.983903011741375e-05 6.869970373186925e-06 0.00012102865451284283 units box
Created 1 atoms
  using box units in orthogonal box = (-0.001 -0.001 -0.001) to (0.001 0.001 0.001)
  create_atoms CPU = 0.000 seconds

create_atoms 1 single 0.00016225266630692808 -0.0002631909493340018 0.00015926454250002532 units box
Created 1 atoms
  using box units in orthogonal box = (-0.001 -0.001 -0.001) to (0.001 0.001 0.001)
  create_atoms CPU = 0.000 seconds

create_atoms 1 single 4.2721567667967225e-05 -4.4423470503892355e-05 6.921290592281887e-05 units box
Created 1 atoms
  using box units in orthogonal box = (-0.001 -0.001 -0.001) to (0.001 0.001 0.001)
  create_atoms CPU = 0.000 seconds

create_atoms 1 single -0.00027120605302072016 -6.237921905426867e-06 -0.00014838109155843244 units box
Created 1 atoms
  using box units in orthogonal box = (-0.001 -0.001 -0.001) to (0.001 0.001 0.001)
  create_atoms CPU = 0.000 seconds

create_atoms 1 single -9.808939796506047e-05 0.00015380151699200854 -0.0001032913602343367 units box
Created 1 atoms
  using box units in orthogonal box = (-0.001 -0.001 -0.001) to (0.001 0.001 0.001)
  create_atoms CPU = 0.000 seconds

create_atoms 1 single -1.9954556818112495e-05 0.0004303501884427408 -0.0006689526554673933 units box
Created 1 atoms
  using box units in orthogonal box = (-0.001 -0.001 -0.001) to (0.001 0.001 0.001)
  create_atoms CPU = 0.000 seconds

create_atoms 1 single -0.00030242748158682627 -0.00042335370341664384 0.0003674923307165483 units box
Created 1 atoms
  using box units in orthogonal box = (-0.001 -0.001 -0.001) to (0.001 0.001 0.001)
  create_atoms CPU = 0.000 seconds

create_atoms 1 single -0.00025565927030180626 -0.0002578372123155699 -0.0003296134107521111 units box
Created 1 atoms
  using box units in orthogonal box = (-0.001 -0.001 -0.001) to (0.001 0.001 0.001)
  create_atoms CPU = 0.000 seconds

create_atoms 1 single 6.546835134612766e-05 -0.0002811174621692781 -0.0007253794362792741 units box
Created 1 atoms
  using box units in orthogonal box = (-0.001 -0.001 -0.001) to (0.001 0.001 0.001)
  create_atoms CPU = 0.000 seconds

create_atoms 1 single -1.814950680798493e-06 -3.3376152518628695e-06 -2.9886388572707236e-05 units box
Created 1 atoms
  using box units in orthogonal box = (-0.001 -0.001 -0.001) to (0.001 0.001 0.001)
  create_atoms CPU = 0.000 seconds

create_atoms 1 single -0.0003051919166117486 -7.144280085791611e-05 0.00014502219380880204 units box
Created 1 atoms
  using box units in orthogonal box = (-0.001 -0.001 -0.001) to (0.001 0.001 0.001)
  create_atoms CPU = 0.000 seconds

create_atoms 1 single -0.000498769105502217 -6.499318293185714e-05 0.00017725512502541875 units box
Created 1 atoms
  using box units in orthogonal box = (-0.001 -0.001 -0.001) to (0.001 0.001 0.001)
  create_atoms CPU = 0.000 seconds

create_atoms 1 single 0.0001483871239036039 0.0001729675616524778 0.0007782882902352836 units box
Created 1 atoms
  using box units in orthogonal box = (-0.001 -0.001 -0.001) to (0.001 0.001 0.001)
  create_atoms CPU = 0.000 seconds

create_atoms 1 single 0.00031888753063731025 3.0400877245326033e-05 -0.0007761183265560167 units box
Created 1 atoms
  using box units in orthogonal box = (-0.001 -0.001 -0.001) to (0.001 0.001 0.001)
  create_atoms CPU = 0.000 seconds

create_atoms 1 single -0.0001886979771116774 -0.00026331452997546874 -0.0003065699922548159 units box
Created 1 atoms
  using box units in orthogonal box = (-0.001 -0.001 -0.001) to (0.001 0.001 0.001)
  create_atoms CPU = 0.000 seconds

create_atoms 1 single 3.0356856957946352e-05 6.053591763759891e-05 -0.00043406939128842157 units box
Created 1 atoms
  using box units in orthogonal box = (-0.001 -0.001 -0.001) to (0.001 0.001 0.001)
  create_atoms CPU = 0.000 seconds

create_atoms 1 single 2.775629757175769e-05 -4.662944143474263e-05 -0.00033069480734111115 units box
Created 1 atoms
  using box units in orthogonal box = (-0.001 -0.001 -0.001) to (0.001 0.001 0.001)
  create_atoms CPU = 0.000 seconds

create_atoms 1 single -0.0001416658204870114 -1.77983802179955e-05 -0.0003254473773121404 units box
Created 1 atoms
  using box units in orthogonal box = (-0.001 -0.001 -0.001) to (0.001 0.001 0.001)
  create_atoms CPU = 0.000 seconds

create_atoms 1 single -5.213060971436836e-05 -7.335838056971785e-05 -0.0009845004094758546 units box
Created 1 atoms
  using box units in orthogonal box = (-0.001 -0.001 -0.001) to (0.001 0.001 0.001)
  create_atoms CPU = 0.000 seconds

create_atoms 1 single -2.1392835238732825e-06 -3.280951200164129e-05 -0.0004021501532652423 units box
Created 1 atoms
  using box units in orthogonal box = (-0.001 -0.001 -0.001) to (0.001 0.001 0.001)
  create_atoms CPU = 0.000 seconds

create_atoms 1 single 0.0003115155903909882 -0.0003829764182698716 0.00047035205026771956 units box
Created 1 atoms
  using box units in orthogonal box = (-0.001 -0.001 -0.001) to (0.001 0.001 0.001)
  create_atoms CPU = 0.000 seconds

create_atoms 1 single 0.0002818807562232484 -0.00017819739181085232 0.0001806663077670894 units box
Created 1 atoms
  using box units in orthogonal box = (-0.001 -0.001 -0.001) to (0.001 0.001 0.001)
  create_atoms CPU = 0.000 seconds

create_atoms 1 single 2.3863445644491878e-05 -1.3096191548369071e-05 -0.0002142657216679912 units box
Created 1 atoms
  using box units in orthogonal box = (-0.001 -0.001 -0.001) to (0.001 0.001 0.001)
  create_atoms CPU = 0.000 seconds

create_atoms 1 single 3.869733215767978e-05 -1.5220090818653604e-05 -0.0001903486994560066 units box
Created 1 atoms
  using box units in orthogonal box = (-0.001 -0.001 -0.001) to (0.001 0.001 0.001)
  create_atoms CPU = 0.000 seconds

create_atoms 1 single 0.0003184362844283664 -2.997589489439363e-05 -0.0003901382309728319 units box
Created 1 atoms
  using box units in orthogonal box = (-0.001 -0.001 -0.001) to (0.001 0.001 0.001)
  create_atoms CPU = 0.000 seconds

create_atoms 1 single -6.439193334181266e-05 -5.212203306342275e-05 0.00016261545461819518 units box
Created 1 atoms
  using box units in orthogonal box = (-0.001 -0.001 -0.001) to (0.001 0.001 0.001)
  create_atoms CPU = 0.000 seconds

create_atoms 1 single -0.00011820795658999843 -0.0002441501964237784 0.0004171801187569002 units box
Created 1 atoms
  using box units in orthogonal box = (-0.001 -0.001 -0.001) to (0.001 0.001 0.001)
  create_atoms CPU = 0.000 seconds

create_atoms 1 single 0.0006354833760681703 -0.0005871507472841587 -0.00027725780369440025 units box
Created 1 atoms
  using box units in orthogonal box = (-0.001 -0.001 -0.001) to (0.001 0.001 0.001)
  create_atoms CPU = 0.000 seconds

create_atoms 1 single 9.209450246212292e-05 1.0295458130717636e-05 -9.402845896966531e-05 units box
Created 1 atoms
  using box units in orthogonal box = (-0.001 -0.001 -0.001) to (0.001 0.001 0.001)
  create_atoms CPU = 0.000 seconds

create_atoms 1 single 2.5777577781546505e-05 -0.00014049079073524573 -0.0008113512297469141 units box
Created 1 atoms
  using box units in orthogonal box = (-0.001 -0.001 -0.001) to (0.001 0.001 0.001)
  create_atoms CPU = 0.000 seconds

create_atoms 1 single 0.00010796454599647362 -5.244314577227026e-05 -0.0002756917984795568 units box
Created 1 atoms
  using box units in orthogonal box = (-0.001 -0.001 -0.001) to (0.001 0.001 0.001)
  create_atoms CPU = 0.000 seconds

create_atoms 1 single 0.0004345763390674662 -0.0003314770789568772 -0.00039688979038583023 units box
Created 1 atoms
  using box units in orthogonal box = (-0.001 -0.001 -0.001) to (0.001 0.001 0.001)
  create_atoms CPU = 0.000 seconds

create_atoms 1 single -2.6109506397107793e-05 -0.00011062130241598955 -0.00026457174957471107 units box
Created 1 atoms
  using box units in orthogonal box = (-0.001 -0.001 -0.001) to (0.001 0.001 0.001)
  create_atoms CPU = 0.000 seconds

create_atoms 1 single 1.8776233298084533e-05 -2.288918326882137e-05 -0.00042077612187274056 units box
Created 1 atoms
  using box units in orthogonal box = (-0.001 -0.001 -0.001) to (0.001 0.001 0.001)
  create_atoms CPU = 0.000 seconds

create_atoms 1 single -8.16003072874135e-05 0.00015989908630885578 -4.494093861988337e-05 units box
Created 1 atoms
  using box units in orthogonal box = (-0.001 -0.001 -0.001) to (0.001 0.001 0.001)
  create_atoms CPU = 0.000 seconds

create_atoms 1 single 6.39965172845629e-05 -0.00018987134028036824 0.0008479423355153094 units box
Created 1 atoms
  using box units in orthogonal box = (-0.001 -0.001 -0.001) to (0.001 0.001 0.001)
  create_atoms CPU = 0.000 seconds

create_atoms 1 single -1.4559397908957222e-05 4.752583982076914e-06 -4.01482032403999e-05 units box
Created 1 atoms
  using box units in orthogonal box = (-0.001 -0.001 -0.001) to (0.001 0.001 0.001)
  create_atoms CPU = 0.000 seconds

create_atoms 1 single -0.0007960718119850448 0.00015807904252641532 0.00022206191470859648 units box
Created 1 atoms
  using box units in orthogonal box = (-0.001 -0.001 -0.001) to (0.001 0.001 0.001)
  create_atoms CPU = 0.000 seconds


# Species...
mass 1 1.4944851e-26
set type 1 charge 1.6021764599999998e-19
Setting atom values ...
  50 settings made for charge
group 1 type 1
50 atoms in group 1


timestep 1e-06

# Configuring additional output to flush buffer during simulation...
thermo 10000
thermo_style custom step cpu
thermo_modify flush yes

# Time integration...

group nonRigidBody union all
50 atoms in group nonRigidBody

fix timeIntegrator nonRigidBody nve



dump 9240198274 all custom 10 /Users/michaelmitchell/qlicS/data/2024-06-28_22-52-17/positions.txt id x y z vx vy vz





# Pseudopotential approximation for Linear Paul trap... (fixID=9248153558)


# SHO

variable k_x9248153558		equal 1.773509e-12

variable k_y9248153558		equal 1.773509e-12

variable k_z9248153558		equal 1.548694e-13

variable fX9248153558 atom "-v_k_x9248153558 * x"

variable fY9248153558 atom "-v_k_y9248153558 * y"

variable fZ9248153558 atom "-v_k_z9248153558 * z"

variable E9248153558 atom "v_k_x9248153558 * x * x /         2 + v_k_y9248153558 * y * y / 2 + v_k_z9248153558 * z * z / 2"

fix 9248153558 all addforce         v_fX9248153558 v_fY9248153558 v_fZ9248153558 energy v_E9248153558




variable coolx atom (9.269386030594033e-20+(-2.703426035144626e-21*vx))*-0.5000000000000001
variable cooly atom (9.269386030594033e-20+-2.703426035144626e-21*vy)*-0.5000000000000001
variable coolz atom (9.269386030594033e-20+-2.703426035144626e-21*vz)*-0.7071067811865476
fix 569202603907002 1 addforce v_coolx v_cooly v_coolz



timestep 1e-08


# Run simulation

run 10000
Generated 0 of 0 mixed pair_coeff terms from geometric mixing rule
Neighbor list info ...
  update every 1 steps, delay 10 steps, check yes
  max neighbors/atom: 2000, page size: 100000
  master list distance cutoff = 11
  ghost atom cutoff = 11
  1 neighbor lists, perpetual/occasional/extra = 1 0 0
  (1) pair coul/cut, perpetual
      attributes: half, newton on
      pair build: half/nsq/newton
      stencil: none
      bin: none
WARNING: Proc sub-domain size < neighbor skin, could lead to lost atoms (src/domain.cpp:970)
Per MPI rank memory allocation (min/avg/max) = 5.283 | 5.283 | 5.283 Mbytes
   Step          CPU      
         0   0            
     10000   0.70986424   
Loop time of 0.709882 on 1 procs for 10000 steps with 50 atoms

96.3% CPU use with 1 MPI tasks x no OpenMP threads

MPI task timing breakdown:
Section |  min time  |  avg time  |  max time  |%varavg| %total
---------------------------------------------------------------
Pair    | 0.13475    | 0.13475    | 0.13475    |   0.0 | 18.98
Neigh   | 0          | 0          | 0          |   0.0 |  0.00
Comm    | 0.001591   | 0.001591   | 0.001591   |   0.0 |  0.22
Output  | 0.1096     | 0.1096     | 0.1096     |   0.0 | 15.44
Modify  | 0.46112    | 0.46112    | 0.46112    |   0.0 | 64.96
Other   |            | 0.002827   |            |       |  0.40

Nlocal:             50 ave          50 max          50 min
Histogram: 1 0 0 0 0 0 0 0 0 0
Nghost:              0 ave           0 max           0 min
Histogram: 1 0 0 0 0 0 0 0 0 0
Neighs:           1225 ave        1225 max        1225 min
Histogram: 1 0 0 0 0 0 0 0 0 0

Total # of neighbors = 1225
Ave neighs/atom = 24.5
Neighbor list builds = 0
Dangerous builds = 0




variable E equal 0
variable Ex atom (0.003*(319.039+-320779.0*(x-0)+163840000.0*(x-0)^2+3188.37*(y-0)+-158115000.0*(y-0)^2+-0.483258*(z-0)+16206.1*(z-0)^2))*cos((2*3.141592653589793)*0.0007170000000000001*step)
variable B equal 0
variable Ey atom (0.003*(-3.62944+3527.19*(x-0)+660075.0*(x-0)^2+320888.0*(y-0)+-1252000.0*(y-0)^2+1.91814*(z-0)+13573.5*(z-0)^2))*cos((2*3.141592653589793)*0.0007170000000000001*step)
variable C equal 0
variable Ez atom (0.003*(0.00111849+-0.582074*(x-0)+-789.5*(x-0)^2+2.08274*(y-0)+1408.33*(y-0)^2+-57.5482*(z-0)+153.512*(z-0)^2))*cos((2*3.141592653589793)*0.0007170000000000001*step)
fix 569202603907006 all efield v_Ex v_Ey v_Ez



timestep 1e-09


# Run simulation

run 10000
Generated 0 of 0 mixed pair_coeff terms from geometric mixing rule
WARNING: Proc sub-domain size < neighbor skin, could lead to lost atoms (src/domain.cpp:970)
Per MPI rank memory allocation (min/avg/max) = 5.783 | 5.783 | 5.783 Mbytes
   Step          CPU      
     10000   0            
     20000   1.9521329    
Loop time of 1.95216 on 1 procs for 10000 steps with 50 atoms

96.6% CPU use with 1 MPI tasks x no OpenMP threads

MPI task timing breakdown:
Section |  min time  |  avg time  |  max time  |%varavg| %total
---------------------------------------------------------------
Pair    | 0.14195    | 0.14195    | 0.14195    |   0.0 |  7.27
Neigh   | 0          | 0          | 0          |   0.0 |  0.00
Comm    | 0.0021557  | 0.0021557  | 0.0021557  |   0.0 |  0.11
Output  | 0.1179     | 0.1179     | 0.1179     |   0.0 |  6.04
Modify  | 1.6864     | 1.6864     | 1.6864     |   0.0 | 86.38
Other   |            | 0.003788   |            |       |  0.19

Nlocal:             50 ave          50 max          50 min
Histogram: 1 0 0 0 0 0 0 0 0 0
Nghost:              0 ave           0 max           0 min
Histogram: 1 0 0 0 0 0 0 0 0 0
Neighs:           1225 ave        1225 max        1225 min
Histogram: 1 0 0 0 0 0 0 0 0 0

Total # of neighbors = 1225
Ave neighs/atom = 24.5
Neighbor list builds = 0
Dangerous builds = 0


Total wall time: 0:00:02
