LAMMPS (23 Jun 2022)
##################################################################
# LAMMPS input file generated using pylion 0.5.3
# simulation name: test
#
# pylion is written and maintained by Dimitris Trypogeorgos
# and Elliot Bentine. Download it from
# https://bitbucket.org/dtrypogeorgos/pylion
#
# If you find it useful please cite <paper>.
##################################################################



units si
atom_style charge

# Creating simulation box...
boundary m m m
region simulationDomain block -0.001  0.001 -0.001 0.001 -0.001 0.001 units box
create_box 1 simulationDomain
Created orthogonal box = (-0.001 -0.001 -0.001) to (0.001 0.001 0.001)
  1 by 1 by 1 MPI processor grid

# Configure neighbour list...
neighbor 1 nsq
neigh_modify once yes

# Configure pairwise interactions for long range Coulombics only...
pair_style coul/cut 10
pair_coeff * *

# Placing individual ions...


create_atoms 1 single 0.00010177560151822762 -6.80627646195704e-05 -0.00014494618481485563 units box
Created 1 atoms
  using box units in orthogonal box = (-0.001 -0.001 -0.001) to (0.001 0.001 0.001)
  create_atoms CPU = 0.000 seconds


# Species...
mass 1 1.4944851e-26
set type 1 charge 1.6021764599999998e-19
Setting atom values ...
  1 settings made for charge
group 1 type 1
1 atoms in group 1



# Configuring additional output to flush buffer during simulation...
thermo 10000
thermo_style custom step cpu
thermo_modify flush yes

# Time integration...

group nonRigidBody union all
1 atoms in group nonRigidBody

fix timeIntegrator nonRigidBody nve



dump 9315109921 all custom 1 /Users/michaelmitchell/qlicS/data/2024-07-15_12-59-25/positions.txt id x y z vx vy vz





# Pseudopotential approximation for Linear Paul trap... (fixID=9035365833)


# SHO

variable k_x9035365833		equal 2.973789e-13

variable k_y9035365833		equal 2.973789e-13

variable k_z9035365833		equal 4.835556e-14

variable fX9035365833 atom "-v_k_x9035365833 * x"

variable fY9035365833 atom "-v_k_y9035365833 * y"

variable fZ9035365833 atom "-v_k_z9035365833 * z"

variable E9035365833 atom "v_k_x9035365833 * x * x /         2 + v_k_y9035365833 * y * y / 2 + v_k_z9035365833 * z * z / 2"

fix 9035365833 1 addforce         v_fX9035365833 v_fY9035365833 v_fZ9035365833 energy v_E9035365833




variable coolx atom (9.269386030594033e-20+(2.703426035144626e-21*vx))*-0.5000000000000001
variable cooly atom (9.269386030594033e-20+2.703426035144626e-21*vy)*-0.5000000000000001
variable coolz atom (9.269386030594033e-20+2.703426035144626e-21*vz)*-0.7071067811865476
fix 569202603907002 1 addforce v_coolx v_cooly v_coolz



variable E equal 0
variable Ex atom (0.1*(100+0*(x-0)+0*(x-0)^2+0*(y-0)+0*(y-0)^2+0*(z-0)+0*(z-0)^2))*cos((2*3.141592653589793)*0.0071*step)
variable B equal 0
variable Ey atom (0.1*(0+0*(x-0)+0*(x-0)^2+0.0*(y-0)+0.0*(y-0)^2+0*(z-0)+0*(z-0)^2))*cos((2*3.141592653589793)*0.0071*step)
variable C equal 0
variable Ez atom (0.1*(0+0*(x-0)+0*(x-0)^2+0*(y-0)+0*(y-0)^2+0*(z-0)+0*(z-0)^2))*cos((2*3.141592653589793)*0.0071*step)
fix 469202603907006 all efield v_Ex v_Ey v_Ez



timestep 1e-08


# Run simulation

run 40000
Generated 0 of 0 mixed pair_coeff terms from geometric mixing rule
Neighbor list info ...
  update every 1 steps, delay 10 steps, check yes
  max neighbors/atom: 2000, page size: 100000
  master list distance cutoff = 11
  ghost atom cutoff = 11
  1 neighbor lists, perpetual/occasional/extra = 1 0 0
  (1) pair coul/cut, perpetual
      attributes: half, newton on
      pair build: half/nsq/newton
      stencil: none
      bin: none
WARNING: Proc sub-domain size < neighbor skin, could lead to lost atoms (src/domain.cpp:970)
Per MPI rank memory allocation (min/avg/max) = 1.405 | 1.405 | 1.405 Mbytes
   Step          CPU      
         0   0            
     10000   1.0870926    
     20000   2.2896499    
     30000   3.3798923    
     40000   4.6535735    
Loop time of 4.65366 on 1 procs for 40000 steps with 1 atoms

90.1% CPU use with 1 MPI tasks x no OpenMP threads

MPI task timing breakdown:
Section |  min time  |  avg time  |  max time  |%varavg| %total
---------------------------------------------------------------
Pair    | 0.0053024  | 0.0053024  | 0.0053024  |   0.0 |  0.11
Neigh   | 0          | 0          | 0          |   0.0 |  0.00
Comm    | 0.0073502  | 0.0073502  | 0.0073502  |   0.0 |  0.16
Output  | 0.57532    | 0.57532    | 0.57532    |   0.0 | 12.36
Modify  | 4.0479     | 4.0479     | 4.0479     |   0.0 | 86.98
Other   |            | 0.01775    |            |       |  0.38

Nlocal:              1 ave           1 max           1 min
Histogram: 1 0 0 0 0 0 0 0 0 0
Nghost:              0 ave           0 max           0 min
Histogram: 1 0 0 0 0 0 0 0 0 0
Neighs:              0 ave           0 max           0 min
Histogram: 1 0 0 0 0 0 0 0 0 0

Total # of neighbors = 0
Ave neighs/atom = 0
Neighbor list builds = 0
Dangerous builds = 0





# Deleting a fix by uid

unfix 469202603907006




variable E equal 0
variable Ex atom (0.1*(100+0*(x-0)+0*(x-0)^2+0*(y-0)+0*(y-0)^2+0*(z-0)+0*(z-0)^2))*cos((2*3.141592653589793)*0.00071*step)
variable B equal 0
variable Ey atom (0.1*(0+0*(x-0)+0*(x-0)^2+0.0*(y-0)+0.0*(y-0)^2+0*(z-0)+0*(z-0)^2))*cos((2*3.141592653589793)*0.00071*step)
variable C equal 0
variable Ez atom (0.1*(0+0*(x-0)+0*(x-0)^2+0*(y-0)+0*(y-0)^2+0*(z-0)+0*(z-0)^2))*cos((2*3.141592653589793)*0.00071*step)
fix 469202603907007 all efield v_Ex v_Ey v_Ez



timestep 1e-09


# Run simulation

run 150000
Generated 0 of 0 mixed pair_coeff terms from geometric mixing rule
WARNING: Proc sub-domain size < neighbor skin, could lead to lost atoms (src/domain.cpp:970)
Per MPI rank memory allocation (min/avg/max) = 1.405 | 1.405 | 1.405 Mbytes
   Step          CPU      
     40000   0            
     50000   1.3931663    
     60000   2.507449     
     70000   3.7015678    
     80000   5.068726     
     90000   6.1767343    
    100000   7.3156821    
    110000   8.5284813    
    120000   10.149266    
    130000   11.875853    
    140000   13.118821    
    150000   14.300822    
    160000   15.491931    
    170000   16.680464    
    180000   17.902844    
    190000   19.135012    
Loop time of 19.135 on 1 procs for 150000 steps with 1 atoms

86.3% CPU use with 1 MPI tasks x no OpenMP threads

MPI task timing breakdown:
Section |  min time  |  avg time  |  max time  |%varavg| %total
---------------------------------------------------------------
Pair    | 0.023826   | 0.023826   | 0.023826   |   0.0 |  0.12
Neigh   | 0          | 0          | 0          |   0.0 |  0.00
Comm    | 0.031056   | 0.031056   | 0.031056   |   0.0 |  0.16
Output  | 2.6282     | 2.6282     | 2.6282     |   0.0 | 13.73
Modify  | 16.376     | 16.376     | 16.376     |   0.0 | 85.58
Other   |            | 0.07551    |            |       |  0.39

Nlocal:              1 ave           1 max           1 min
Histogram: 1 0 0 0 0 0 0 0 0 0
Nghost:              0 ave           0 max           0 min
Histogram: 1 0 0 0 0 0 0 0 0 0
Neighs:              0 ave           0 max           0 min
Histogram: 1 0 0 0 0 0 0 0 0 0

Total # of neighbors = 0
Ave neighs/atom = 0
Neighbor list builds = 0
Dangerous builds = 0





# Deleting a fix by uid

unfix 469202603907007




variable E equal 0
variable Ex atom (0.1*(100+0*(x-0)+0*(x-0)^2+0*(y-0)+0*(y-0)^2+0*(z-0)+0*(z-0)^2))*cos((2*3.141592653589793)*0.0142*step)
variable B equal 0
variable Ey atom (0.1*(0+0*(x-0)+0*(x-0)^2+0.0*(y-0)+0.0*(y-0)^2+0*(z-0)+0*(z-0)^2))*cos((2*3.141592653589793)*0.0142*step)
variable C equal 0
variable Ez atom (0.1*(0+0*(x-0)+0*(x-0)^2+0*(y-0)+0*(y-0)^2+0*(z-0)+0*(z-0)^2))*cos((2*3.141592653589793)*0.0142*step)
fix 469202603907008 all efield v_Ex v_Ey v_Ez



timestep 2e-08


# Run simulation

run 40000
Generated 0 of 0 mixed pair_coeff terms from geometric mixing rule
WARNING: Proc sub-domain size < neighbor skin, could lead to lost atoms (src/domain.cpp:970)
Per MPI rank memory allocation (min/avg/max) = 1.405 | 1.405 | 1.405 Mbytes
   Step          CPU      
    190000   0            
    200000   1.1798633    
    210000   2.46479      
    220000   3.7246261    
    230000   4.7959659    
Loop time of 4.79599 on 1 procs for 40000 steps with 1 atoms

88.6% CPU use with 1 MPI tasks x no OpenMP threads

MPI task timing breakdown:
Section |  min time  |  avg time  |  max time  |%varavg| %total
---------------------------------------------------------------
Pair    | 0.0057615  | 0.0057615  | 0.0057615  |   0.0 |  0.12
Neigh   | 0          | 0          | 0          |   0.0 |  0.00
Comm    | 0.0077062  | 0.0077062  | 0.0077062  |   0.0 |  0.16
Output  | 0.62029    | 0.62029    | 0.62029    |   0.0 | 12.93
Modify  | 4.1433     | 4.1433     | 4.1433     |   0.0 | 86.39
Other   |            | 0.01891    |            |       |  0.39

Nlocal:              1 ave           1 max           1 min
Histogram: 1 0 0 0 0 0 0 0 0 0
Nghost:              0 ave           0 max           0 min
Histogram: 1 0 0 0 0 0 0 0 0 0
Neighs:              0 ave           0 max           0 min
Histogram: 1 0 0 0 0 0 0 0 0 0

Total # of neighbors = 0
Ave neighs/atom = 0
Neighbor list builds = 0
Dangerous builds = 0


Total wall time: 0:00:28
