ITEM: TIMESTEP
0
ITEM: NUMBER OF ATOMS
1
ITEM: BOX BOUNDS mm mm mm
-1.0000000000000000e-03 1.0000000000000000e-03
-1.0000000000000000e-03 1.0000000000000000e-03
-1.0000000000000000e-03 1.0000000000000000e-03
ITEM: ATOMS id x y z vx vy vz
1 -4.17014e-05 5.08614e-05 4.78458e-05 0 0 0
ITEM: TIMESTEP
10
ITEM: NUMBER OF ATOMS
1
ITEM: BOX BOUNDS mm mm mm
-1.0000000000000000e-03 1.0000000000000000e-03
-1.0000000000000000e-03 1.0000000000000000e-03
-1.0000000000000000e-03 1.0000000000000000e-03
ITEM: ATOMS id x y z vx vy vz
1 -4.16601e-05 5.08106e-05 4.78378e-05 8.26078 -10.1441 -1.59095
ITEM: TIMESTEP
20
ITEM: NUMBER OF ATOMS
1
ITEM: BOX BOUNDS mm mm mm
-1.0000000000000000e-03 1.0000000000000000e-03
-1.0000000000000000e-03 1.0000000000000000e-03
-1.0000000000000000e-03 1.0000000000000000e-03
ITEM: ATOMS id x y z vx vy vz
1 -4.15363e-05 5.06586e-05 4.7814e-05 16.4977 -20.2588 -3.17935
ITEM: TIMESTEP
30
ITEM: NUMBER OF ATOMS
1
ITEM: BOX BOUNDS mm mm mm
-1.0000000000000000e-03 1.0000000000000000e-03
-1.0000000000000000e-03 1.0000000000000000e-03
-1.0000000000000000e-03 1.0000000000000000e-03
ITEM: ATOMS id x y z vx vy vz
1 -4.13303e-05 5.04056e-05 4.77742e-05 24.6943 -30.3242 -4.7647
ITEM: TIMESTEP
40
ITEM: NUMBER OF ATOMS
1
ITEM: BOX BOUNDS mm mm mm
-1.0000000000000000e-03 1.0000000000000000e-03
-1.0000000000000000e-03 1.0000000000000000e-03
-1.0000000000000000e-03 1.0000000000000000e-03
ITEM: ATOMS id x y z vx vy vz
1 -4.10426e-05 5.00523e-05 4.77187e-05 32.8344 -40.3201 -6.34648
ITEM: TIMESTEP
50
ITEM: NUMBER OF ATOMS
1
ITEM: BOX BOUNDS mm mm mm
-1.0000000000000000e-03 1.0000000000000000e-03
-1.0000000000000000e-03 1.0000000000000000e-03
-1.0000000000000000e-03 1.0000000000000000e-03
ITEM: ATOMS id x y z vx vy vz
1 -4.06739e-05 4.95995e-05 4.76473e-05 40.9019 -50.2268 -7.92418
ITEM: TIMESTEP
60
ITEM: NUMBER OF ATOMS
1
ITEM: BOX BOUNDS mm mm mm
-1.0000000000000000e-03 1.0000000000000000e-03
-1.0000000000000000e-03 1.0000000000000000e-03
-1.0000000000000000e-03 1.0000000000000000e-03
ITEM: ATOMS id x y z vx vy vz
1 -4.02249e-05 4.90481e-05 4.75602e-05 48.8807 -60.0246 -9.49731
ITEM: TIMESTEP
70
ITEM: NUMBER OF ATOMS
1
ITEM: BOX BOUNDS mm mm mm
-1.0000000000000000e-03 1.0000000000000000e-03
-1.0000000000000000e-03 1.0000000000000000e-03
-1.0000000000000000e-03 1.0000000000000000e-03
ITEM: ATOMS id x y z vx vy vz
1 -3.96966e-05 4.83994e-05 4.74574e-05 56.7552 -69.6943 -11.0654
ITEM: TIMESTEP
80
ITEM: NUMBER OF ATOMS
1
ITEM: BOX BOUNDS mm mm mm
-1.0000000000000000e-03 1.0000000000000000e-03
-1.0000000000000000e-03 1.0000000000000000e-03
-1.0000000000000000e-03 1.0000000000000000e-03
ITEM: ATOMS id x y z vx vy vz
1 -3.90902e-05 4.76547e-05 4.73389e-05 64.5096 -79.2166 -12.6278
ITEM: TIMESTEP
90
ITEM: NUMBER OF ATOMS
1
ITEM: BOX BOUNDS mm mm mm
-1.0000000000000000e-03 1.0000000000000000e-03
-1.0000000000000000e-03 1.0000000000000000e-03
-1.0000000000000000e-03 1.0000000000000000e-03
ITEM: ATOMS id x y z vx vy vz
1 -3.84068e-05 4.68156e-05 4.72049e-05 72.1287 -88.5727 -14.1842
ITEM: TIMESTEP
100
ITEM: NUMBER OF ATOMS
1
ITEM: BOX BOUNDS mm mm mm
-1.0000000000000000e-03 1.0000000000000000e-03
-1.0000000000000000e-03 1.0000000000000000e-03
-1.0000000000000000e-03 1.0000000000000000e-03
ITEM: ATOMS id x y z vx vy vz
1 -3.76481e-05 4.58839e-05 4.70553e-05 79.5975 -97.7442 -15.734
ITEM: TIMESTEP
110
ITEM: NUMBER OF ATOMS
1
ITEM: BOX BOUNDS mm mm mm
-1.0000000000000000e-03 1.0000000000000000e-03
-1.0000000000000000e-03 1.0000000000000000e-03
-1.0000000000000000e-03 1.0000000000000000e-03
ITEM: ATOMS id x y z vx vy vz
1 -3.68154e-05 4.48614e-05 4.68902e-05 86.9012 -106.713 -17.2767
ITEM: TIMESTEP
120
ITEM: NUMBER OF ATOMS
1
ITEM: BOX BOUNDS mm mm mm
-1.0000000000000000e-03 1.0000000000000000e-03
-1.0000000000000000e-03 1.0000000000000000e-03
-1.0000000000000000e-03 1.0000000000000000e-03
ITEM: ATOMS id x y z vx vy vz
1 -3.59106e-05 4.37504e-05 4.67097e-05 94.0255 -115.462 -18.8119
ITEM: TIMESTEP
130
ITEM: NUMBER OF ATOMS
1
ITEM: BOX BOUNDS mm mm mm
-1.0000000000000000e-03 1.0000000000000000e-03
-1.0000000000000000e-03 1.0000000000000000e-03
-1.0000000000000000e-03 1.0000000000000000e-03
ITEM: ATOMS id x y z vx vy vz
1 -3.49356e-05 4.2553e-05 4.6514e-05 100.956 -123.973 -20.339
ITEM: TIMESTEP
140
ITEM: NUMBER OF ATOMS
1
ITEM: BOX BOUNDS mm mm mm
-1.0000000000000000e-03 1.0000000000000000e-03
-1.0000000000000000e-03 1.0000000000000000e-03
-1.0000000000000000e-03 1.0000000000000000e-03
ITEM: ATOMS id x y z vx vy vz
1 -3.38922e-05 4.12718e-05 4.6303e-05 107.68 -132.229 -21.8576
ITEM: TIMESTEP
150
ITEM: NUMBER OF ATOMS
1
ITEM: BOX BOUNDS mm mm mm
-1.0000000000000000e-03 1.0000000000000000e-03
-1.0000000000000000e-03 1.0000000000000000e-03
-1.0000000000000000e-03 1.0000000000000000e-03
ITEM: ATOMS id x y z vx vy vz
1 -3.27827e-05 3.99093e-05 4.60769e-05 114.184 -140.216 -23.3672
ITEM: TIMESTEP
160
ITEM: NUMBER OF ATOMS
1
ITEM: BOX BOUNDS mm mm mm
-1.0000000000000000e-03 1.0000000000000000e-03
-1.0000000000000000e-03 1.0000000000000000e-03
-1.0000000000000000e-03 1.0000000000000000e-03
ITEM: ATOMS id x y z vx vy vz
1 -3.16093e-05 3.84684e-05 4.58357e-05 120.455 -147.916 -24.8673
ITEM: TIMESTEP
170
ITEM: NUMBER OF ATOMS
1
ITEM: BOX BOUNDS mm mm mm
-1.0000000000000000e-03 1.0000000000000000e-03
-1.0000000000000000e-03 1.0000000000000000e-03
-1.0000000000000000e-03 1.0000000000000000e-03
ITEM: ATOMS id x y z vx vy vz
1 -3.03744e-05 3.6952e-05 4.55796e-05 126.48 -155.315 -26.3575
ITEM: TIMESTEP
180
ITEM: NUMBER OF ATOMS
1
ITEM: BOX BOUNDS mm mm mm
-1.0000000000000000e-03 1.0000000000000000e-03
-1.0000000000000000e-03 1.0000000000000000e-03
-1.0000000000000000e-03 1.0000000000000000e-03
ITEM: ATOMS id x y z vx vy vz
1 -2.90805e-05 3.53631e-05 4.53086e-05 132.248 -162.399 -27.8372
ITEM: TIMESTEP
190
ITEM: NUMBER OF ATOMS
1
ITEM: BOX BOUNDS mm mm mm
-1.0000000000000000e-03 1.0000000000000000e-03
-1.0000000000000000e-03 1.0000000000000000e-03
-1.0000000000000000e-03 1.0000000000000000e-03
ITEM: ATOMS id x y z vx vy vz
1 -2.77303e-05 3.37051e-05 4.50228e-05 137.749 -169.153 -29.306
ITEM: TIMESTEP
200
ITEM: NUMBER OF ATOMS
1
ITEM: BOX BOUNDS mm mm mm
-1.0000000000000000e-03 1.0000000000000000e-03
-1.0000000000000000e-03 1.0000000000000000e-03
-1.0000000000000000e-03 1.0000000000000000e-03
ITEM: ATOMS id x y z vx vy vz
1 -2.63265e-05 3.19812e-05 4.47225e-05 142.97 -175.565 -30.7635
ITEM: TIMESTEP
210
ITEM: NUMBER OF ATOMS
1
ITEM: BOX BOUNDS mm mm mm
-1.0000000000000000e-03 1.0000000000000000e-03
-1.0000000000000000e-03 1.0000000000000000e-03
-1.0000000000000000e-03 1.0000000000000000e-03
ITEM: ATOMS id x y z vx vy vz
1 -2.48719e-05 3.0195e-05 4.44076e-05 147.902 -181.621 -32.2091
ITEM: TIMESTEP
220
ITEM: NUMBER OF ATOMS
1
ITEM: BOX BOUNDS mm mm mm
-1.0000000000000000e-03 1.0000000000000000e-03
-1.0000000000000000e-03 1.0000000000000000e-03
-1.0000000000000000e-03 1.0000000000000000e-03
ITEM: ATOMS id x y z vx vy vz
1 -2.33694e-05 2.835e-05 4.40783e-05 152.536 -187.311 -33.6425
ITEM: TIMESTEP
230
ITEM: NUMBER OF ATOMS
1
ITEM: BOX BOUNDS mm mm mm
-1.0000000000000000e-03 1.0000000000000000e-03
-1.0000000000000000e-03 1.0000000000000000e-03
-1.0000000000000000e-03 1.0000000000000000e-03
ITEM: ATOMS id x y z vx vy vz
1 -2.18222e-05 2.645e-05 4.37348e-05 156.862 -192.624 -35.0632
ITEM: TIMESTEP
240
ITEM: NUMBER OF ATOMS
1
ITEM: BOX BOUNDS mm mm mm
-1.0000000000000000e-03 1.0000000000000000e-03
-1.0000000000000000e-03 1.0000000000000000e-03
-1.0000000000000000e-03 1.0000000000000000e-03
ITEM: ATOMS id x y z vx vy vz
1 -2.02332e-05 2.44988e-05 4.33771e-05 160.872 -197.548 -36.4708
ITEM: TIMESTEP
250
ITEM: NUMBER OF ATOMS
1
ITEM: BOX BOUNDS mm mm mm
-1.0000000000000000e-03 1.0000000000000000e-03
-1.0000000000000000e-03 1.0000000000000000e-03
-1.0000000000000000e-03 1.0000000000000000e-03
ITEM: ATOMS id x y z vx vy vz
1 -1.86058e-05 2.25003e-05 4.30054e-05 164.559 -202.076 -37.8647
ITEM: TIMESTEP
260
ITEM: NUMBER OF ATOMS
1
ITEM: BOX BOUNDS mm mm mm
-1.0000000000000000e-03 1.0000000000000000e-03
-1.0000000000000000e-03 1.0000000000000000e-03
-1.0000000000000000e-03 1.0000000000000000e-03
ITEM: ATOMS id x y z vx vy vz
1 -1.69431e-05 2.04586e-05 4.26199e-05 167.915 -206.197 -39.2446
ITEM: TIMESTEP
270
ITEM: NUMBER OF ATOMS
1
ITEM: BOX BOUNDS mm mm mm
-1.0000000000000000e-03 1.0000000000000000e-03
-1.0000000000000000e-03 1.0000000000000000e-03
-1.0000000000000000e-03 1.0000000000000000e-03
ITEM: ATOMS id x y z vx vy vz
1 -1.52486e-05 1.83777e-05 4.22206e-05 170.935 -209.904 -40.6101
ITEM: TIMESTEP
280
ITEM: NUMBER OF ATOMS
1
ITEM: BOX BOUNDS mm mm mm
-1.0000000000000000e-03 1.0000000000000000e-03
-1.0000000000000000e-03 1.0000000000000000e-03
-1.0000000000000000e-03 1.0000000000000000e-03
ITEM: ATOMS id x y z vx vy vz
1 -1.35256e-05 1.62619e-05 4.18077e-05 173.611 -213.191 -41.9606
ITEM: TIMESTEP
290
ITEM: NUMBER OF ATOMS
1
ITEM: BOX BOUNDS mm mm mm
-1.0000000000000000e-03 1.0000000000000000e-03
-1.0000000000000000e-03 1.0000000000000000e-03
-1.0000000000000000e-03 1.0000000000000000e-03
ITEM: ATOMS id x y z vx vy vz
1 -1.17775e-05 1.41153e-05 4.13814e-05 175.94 -216.051 -43.2959
ITEM: TIMESTEP
300
ITEM: NUMBER OF ATOMS
1
ITEM: BOX BOUNDS mm mm mm
-1.0000000000000000e-03 1.0000000000000000e-03
-1.0000000000000000e-03 1.0000000000000000e-03
-1.0000000000000000e-03 1.0000000000000000e-03
ITEM: ATOMS id x y z vx vy vz
1 -1.00079e-05 1.19423e-05 4.09419e-05 177.917 -218.478 -44.6155
ITEM: TIMESTEP
310
ITEM: NUMBER OF ATOMS
1
ITEM: BOX BOUNDS mm mm mm
-1.0000000000000000e-03 1.0000000000000000e-03
-1.0000000000000000e-03 1.0000000000000000e-03
-1.0000000000000000e-03 1.0000000000000000e-03
ITEM: ATOMS id x y z vx vy vz
1 -8.22036e-06 9.74721e-06 4.04892e-05 179.538 -220.469 -45.919
ITEM: TIMESTEP
320
ITEM: NUMBER OF ATOMS
1
ITEM: BOX BOUNDS mm mm mm
-1.0000000000000000e-03 1.0000000000000000e-03
-1.0000000000000000e-03 1.0000000000000000e-03
-1.0000000000000000e-03 1.0000000000000000e-03
ITEM: ATOMS id x y z vx vy vz
1 -6.41836e-06 7.53439e-06 4.00235e-05 180.801 -222.02 -47.2059
ITEM: TIMESTEP
330
ITEM: NUMBER OF ATOMS
1
ITEM: BOX BOUNDS mm mm mm
-1.0000000000000000e-03 1.0000000000000000e-03
-1.0000000000000000e-03 1.0000000000000000e-03
-1.0000000000000000e-03 1.0000000000000000e-03
ITEM: ATOMS id x y z vx vy vz
1 -4.60553e-06 5.30827e-06 3.95451e-05 181.703 -223.127 -48.476
ITEM: TIMESTEP
340
ITEM: NUMBER OF ATOMS
1
ITEM: BOX BOUNDS mm mm mm
-1.0000000000000000e-03 1.0000000000000000e-03
-1.0000000000000000e-03 1.0000000000000000e-03
-1.0000000000000000e-03 1.0000000000000000e-03
ITEM: ATOMS id x y z vx vy vz
1 -2.7855e-06 3.07331e-06 3.90541e-05 182.242 -223.79 -49.7287
ITEM: TIMESTEP
350
ITEM: NUMBER OF ATOMS
1
ITEM: BOX BOUNDS mm mm mm
-1.0000000000000000e-03 1.0000000000000000e-03
-1.0000000000000000e-03 1.0000000000000000e-03
-1.0000000000000000e-03 1.0000000000000000e-03
ITEM: ATOMS id x y z vx vy vz
1 -9.61882e-07 8.33939e-07 3.85506e-05 182.419 -224.008 -50.9638
ITEM: TIMESTEP
360
ITEM: NUMBER OF ATOMS
1
ITEM: BOX BOUNDS mm mm mm
-1.0000000000000000e-03 1.0000000000000000e-03
-1.0000000000000000e-03 1.0000000000000000e-03
-1.0000000000000000e-03 1.0000000000000000e-03
ITEM: ATOMS id x y z vx vy vz
1 8.6169e-07 -1.40537e-06 3.80349e-05 182.233 -223.779 -52.1808
ITEM: TIMESTEP
370
ITEM: NUMBER OF ATOMS
1
ITEM: BOX BOUNDS mm mm mm
-1.0000000000000000e-03 1.0000000000000000e-03
-1.0000000000000000e-03 1.0000000000000000e-03
-1.0000000000000000e-03 1.0000000000000000e-03
ITEM: ATOMS id x y z vx vy vz
1 2.68159e-06 -3.64018e-06 3.7507e-05 181.685 -223.106 -53.3793
ITEM: TIMESTEP
380
ITEM: NUMBER OF ATOMS
1
ITEM: BOX BOUNDS mm mm mm
-1.0000000000000000e-03 1.0000000000000000e-03
-1.0000000000000000e-03 1.0000000000000000e-03
-1.0000000000000000e-03 1.0000000000000000e-03
ITEM: ATOMS id x y z vx vy vz
1 4.4942e-06 -5.86603e-06 3.69673e-05 180.776 -221.99 -54.5591
ITEM: TIMESTEP
390
ITEM: NUMBER OF ATOMS
1
ITEM: BOX BOUNDS mm mm mm
-1.0000000000000000e-03 1.0000000000000000e-03
-1.0000000000000000e-03 1.0000000000000000e-03
-1.0000000000000000e-03 1.0000000000000000e-03
ITEM: ATOMS id x y z vx vy vz
1 6.29593e-06 -8.07851e-06 3.64159e-05 179.508 -220.433 -55.7197
ITEM: TIMESTEP
400
ITEM: NUMBER OF ATOMS
1
ITEM: BOX BOUNDS mm mm mm
-1.0000000000000000e-03 1.0000000000000000e-03
-1.0000000000000000e-03 1.0000000000000000e-03
-1.0000000000000000e-03 1.0000000000000000e-03
ITEM: ATOMS id x y z vx vy vz
1 8.08319e-06 -1.02732e-05 3.5853e-05 177.885 -218.439 -56.8608
ITEM: TIMESTEP
410
ITEM: NUMBER OF ATOMS
1
ITEM: BOX BOUNDS mm mm mm
-1.0000000000000000e-03 1.0000000000000000e-03
-1.0000000000000000e-03 1.0000000000000000e-03
-1.0000000000000000e-03 1.0000000000000000e-03
ITEM: ATOMS id x y z vx vy vz
1 9.85246e-06 -1.24459e-05 3.52788e-05 175.909 -216.013 -57.9821
ITEM: TIMESTEP
420
ITEM: NUMBER OF ATOMS
1
ITEM: BOX BOUNDS mm mm mm
-1.0000000000000000e-03 1.0000000000000000e-03
-1.0000000000000000e-03 1.0000000000000000e-03
-1.0000000000000000e-03 1.0000000000000000e-03
ITEM: ATOMS id x y z vx vy vz
1 1.16002e-05 -1.45921e-05 3.46934e-05 173.585 -213.159 -59.0832
ITEM: TIMESTEP
430
ITEM: NUMBER OF ATOMS
1
ITEM: BOX BOUNDS mm mm mm
-1.0000000000000000e-03 1.0000000000000000e-03
-1.0000000000000000e-03 1.0000000000000000e-03
-1.0000000000000000e-03 1.0000000000000000e-03
ITEM: ATOMS id x y z vx vy vz
1 1.3323e-05 -1.67077e-05 3.40972e-05 170.918 -209.884 -60.1638
ITEM: TIMESTEP
440
ITEM: NUMBER OF ATOMS
1
ITEM: BOX BOUNDS mm mm mm
-1.0000000000000000e-03 1.0000000000000000e-03
-1.0000000000000000e-03 1.0000000000000000e-03
-1.0000000000000000e-03 1.0000000000000000e-03
ITEM: ATOMS id x y z vx vy vz
1 1.50175e-05 -1.87884e-05 3.34902e-05 167.913 -206.194 -61.2236
ITEM: TIMESTEP
450
ITEM: NUMBER OF ATOMS
1
ITEM: BOX BOUNDS mm mm mm
-1.0000000000000000e-03 1.0000000000000000e-03
-1.0000000000000000e-03 1.0000000000000000e-03
-1.0000000000000000e-03 1.0000000000000000e-03
ITEM: ATOMS id x y z vx vy vz
1 1.66802e-05 -2.08302e-05 3.28728e-05 164.577 -202.098 -62.2621
ITEM: TIMESTEP
460
ITEM: NUMBER OF ATOMS
1
ITEM: BOX BOUNDS mm mm mm
-1.0000000000000000e-03 1.0000000000000000e-03
-1.0000000000000000e-03 1.0000000000000000e-03
-1.0000000000000000e-03 1.0000000000000000e-03
ITEM: ATOMS id x y z vx vy vz
1 1.83079e-05 -2.2829e-05 3.2245e-05 160.917 -197.604 -63.2793
ITEM: TIMESTEP
470
ITEM: NUMBER OF ATOMS
1
ITEM: BOX BOUNDS mm mm mm
-1.0000000000000000e-03 1.0000000000000000e-03
-1.0000000000000000e-03 1.0000000000000000e-03
-1.0000000000000000e-03 1.0000000000000000e-03
ITEM: ATOMS id x y z vx vy vz
1 1.98975e-05 -2.4781e-05 3.16073e-05 156.941 -192.72 -64.2746
ITEM: TIMESTEP
480
ITEM: NUMBER OF ATOMS
1
ITEM: BOX BOUNDS mm mm mm
-1.0000000000000000e-03 1.0000000000000000e-03
-1.0000000000000000e-03 1.0000000000000000e-03
-1.0000000000000000e-03 1.0000000000000000e-03
ITEM: ATOMS id x y z vx vy vz
1 2.14457e-05 -2.66822e-05 3.09596e-05 152.655 -187.458 -65.248
ITEM: TIMESTEP
490
ITEM: NUMBER OF ATOMS
1
ITEM: BOX BOUNDS mm mm mm
-1.0000000000000000e-03 1.0000000000000000e-03
-1.0000000000000000e-03 1.0000000000000000e-03
-1.0000000000000000e-03 1.0000000000000000e-03
ITEM: ATOMS id x y z vx vy vz
1 2.29496e-05 -2.85289e-05 3.03024e-05 148.07 -181.828 -66.1989
ITEM: TIMESTEP
500
ITEM: NUMBER OF ATOMS
1
ITEM: BOX BOUNDS mm mm mm
-1.0000000000000000e-03 1.0000000000000000e-03
-1.0000000000000000e-03 1.0000000000000000e-03
-1.0000000000000000e-03 1.0000000000000000e-03
ITEM: ATOMS id x y z vx vy vz
1 2.44062e-05 -3.03176e-05 2.96357e-05 143.195 -175.841 -67.1273
ITEM: TIMESTEP
510
ITEM: NUMBER OF ATOMS
1
ITEM: BOX BOUNDS mm mm mm
-1.0000000000000000e-03 1.0000000000000000e-03
-1.0000000000000000e-03 1.0000000000000000e-03
-1.0000000000000000e-03 1.0000000000000000e-03
ITEM: ATOMS id x y z vx vy vz
1 2.58126e-05 -3.20446e-05 2.89599e-05 138.039 -169.51 -68.0327
ITEM: TIMESTEP
520
ITEM: NUMBER OF ATOMS
1
ITEM: BOX BOUNDS mm mm mm
-1.0000000000000000e-03 1.0000000000000000e-03
-1.0000000000000000e-03 1.0000000000000000e-03
-1.0000000000000000e-03 1.0000000000000000e-03
ITEM: ATOMS id x y z vx vy vz
1 2.71661e-05 -3.37067e-05 2.82751e-05 132.614 -162.847 -68.915
ITEM: TIMESTEP
530
ITEM: NUMBER OF ATOMS
1
ITEM: BOX BOUNDS mm mm mm
-1.0000000000000000e-03 1.0000000000000000e-03
-1.0000000000000000e-03 1.0000000000000000e-03
-1.0000000000000000e-03 1.0000000000000000e-03
ITEM: ATOMS id x y z vx vy vz
1 2.8464e-05 -3.53005e-05 2.75817e-05 126.93 -155.867 -69.7739
ITEM: TIMESTEP
540
ITEM: NUMBER OF ATOMS
1
ITEM: BOX BOUNDS mm mm mm
-1.0000000000000000e-03 1.0000000000000000e-03
-1.0000000000000000e-03 1.0000000000000000e-03
-1.0000000000000000e-03 1.0000000000000000e-03
ITEM: ATOMS id x y z vx vy vz
1 2.97039e-05 -3.6823e-05 2.68797e-05 120.998 -148.583 -70.6091
ITEM: TIMESTEP
550
ITEM: NUMBER OF ATOMS
1
ITEM: BOX BOUNDS mm mm mm
-1.0000000000000000e-03 1.0000000000000000e-03
-1.0000000000000000e-03 1.0000000000000000e-03
-1.0000000000000000e-03 1.0000000000000000e-03
ITEM: ATOMS id x y z vx vy vz
1 3.08832e-05 -3.82712e-05 2.61696e-05 114.831 -141.01 -71.4205
ITEM: TIMESTEP
560
ITEM: NUMBER OF ATOMS
1
ITEM: BOX BOUNDS mm mm mm
-1.0000000000000000e-03 1.0000000000000000e-03
-1.0000000000000000e-03 1.0000000000000000e-03
-1.0000000000000000e-03 1.0000000000000000e-03
ITEM: ATOMS id x y z vx vy vz
1 3.19997e-05 -3.96423e-05 2.54514e-05 108.441 -133.164 -72.2077
ITEM: TIMESTEP
570
ITEM: NUMBER OF ATOMS
1
ITEM: BOX BOUNDS mm mm mm
-1.0000000000000000e-03 1.0000000000000000e-03
-1.0000000000000000e-03 1.0000000000000000e-03
-1.0000000000000000e-03 1.0000000000000000e-03
ITEM: ATOMS id x y z vx vy vz
1 3.30513e-05 -4.09336e-05 2.47255e-05 101.842 -125.06 -72.9705
ITEM: TIMESTEP
580
ITEM: NUMBER OF ATOMS
1
ITEM: BOX BOUNDS mm mm mm
-1.0000000000000000e-03 1.0000000000000000e-03
-1.0000000000000000e-03 1.0000000000000000e-03
-1.0000000000000000e-03 1.0000000000000000e-03
ITEM: ATOMS id x y z vx vy vz
1 3.40359e-05 -4.21427e-05 2.39921e-05 95.0456 -116.714 -73.7088
ITEM: TIMESTEP
590
ITEM: NUMBER OF ATOMS
1
ITEM: BOX BOUNDS mm mm mm
-1.0000000000000000e-03 1.0000000000000000e-03
-1.0000000000000000e-03 1.0000000000000000e-03
-1.0000000000000000e-03 1.0000000000000000e-03
ITEM: ATOMS id x y z vx vy vz
1 3.49516e-05 -4.32672e-05 2.32514e-05 88.0666 -108.144 -74.4222
ITEM: TIMESTEP
600
ITEM: NUMBER OF ATOMS
1
ITEM: BOX BOUNDS mm mm mm
-1.0000000000000000e-03 1.0000000000000000e-03
-1.0000000000000000e-03 1.0000000000000000e-03
-1.0000000000000000e-03 1.0000000000000000e-03
ITEM: ATOMS id x y z vx vy vz
1 3.57967e-05 -4.43049e-05 2.25037e-05 80.9187 -99.3667 -75.1108
ITEM: TIMESTEP
610
ITEM: NUMBER OF ATOMS
1
ITEM: BOX BOUNDS mm mm mm
-1.0000000000000000e-03 1.0000000000000000e-03
-1.0000000000000000e-03 1.0000000000000000e-03
-1.0000000000000000e-03 1.0000000000000000e-03
ITEM: ATOMS id x y z vx vy vz
1 3.65695e-05 -4.52539e-05 2.17493e-05 73.6164 -90.3996 -75.7741
ITEM: TIMESTEP
620
ITEM: NUMBER OF ATOMS
1
ITEM: BOX BOUNDS mm mm mm
-1.0000000000000000e-03 1.0000000000000000e-03
-1.0000000000000000e-03 1.0000000000000000e-03
-1.0000000000000000e-03 1.0000000000000000e-03
ITEM: ATOMS id x y z vx vy vz
1 3.72686e-05 -4.61123e-05 2.09883e-05 66.1743 -81.2608 -76.4121
ITEM: TIMESTEP
630
ITEM: NUMBER OF ATOMS
1
ITEM: BOX BOUNDS mm mm mm
-1.0000000000000000e-03 1.0000000000000000e-03
-1.0000000000000000e-03 1.0000000000000000e-03
-1.0000000000000000e-03 1.0000000000000000e-03
ITEM: ATOMS id x y z vx vy vz
1 3.78926e-05 -4.68786e-05 2.02211e-05 58.6074 -71.9687 -77.0246
ITEM: TIMESTEP
640
ITEM: NUMBER OF ATOMS
1
ITEM: BOX BOUNDS mm mm mm
-1.0000000000000000e-03 1.0000000000000000e-03
-1.0000000000000000e-03 1.0000000000000000e-03
-1.0000000000000000e-03 1.0000000000000000e-03
ITEM: ATOMS id x y z vx vy vz
1 3.84404e-05 -4.75513e-05 1.94479e-05 50.9307 -62.5419 -77.6113
ITEM: TIMESTEP
650
ITEM: NUMBER OF ATOMS
1
ITEM: BOX BOUNDS mm mm mm
-1.0000000000000000e-03 1.0000000000000000e-03
-1.0000000000000000e-03 1.0000000000000000e-03
-1.0000000000000000e-03 1.0000000000000000e-03
ITEM: ATOMS id x y z vx vy vz
1 3.89109e-05 -4.81291e-05 1.8669e-05 43.1596 -52.9992 -78.1723
ITEM: TIMESTEP
660
ITEM: NUMBER OF ATOMS
1
ITEM: BOX BOUNDS mm mm mm
-1.0000000000000000e-03 1.0000000000000000e-03
-1.0000000000000000e-03 1.0000000000000000e-03
-1.0000000000000000e-03 1.0000000000000000e-03
ITEM: ATOMS id x y z vx vy vz
1 3.93033e-05 -4.86109e-05 1.78846e-05 35.3098 -43.3598 -78.7072
ITEM: TIMESTEP
670
ITEM: NUMBER OF ATOMS
1
ITEM: BOX BOUNDS mm mm mm
-1.0000000000000000e-03 1.0000000000000000e-03
-1.0000000000000000e-03 1.0000000000000000e-03
-1.0000000000000000e-03 1.0000000000000000e-03
ITEM: ATOMS id x y z vx vy vz
1 3.96169e-05 -4.8996e-05 1.70949e-05 27.3968 -33.6428 -79.216
ITEM: TIMESTEP
680
ITEM: NUMBER OF ATOMS
1
ITEM: BOX BOUNDS mm mm mm
-1.0000000000000000e-03 1.0000000000000000e-03
-1.0000000000000000e-03 1.0000000000000000e-03
-1.0000000000000000e-03 1.0000000000000000e-03
ITEM: ATOMS id x y z vx vy vz
1 3.98511e-05 -4.92836e-05 1.63003e-05 19.4366 -23.8677 -79.6985
ITEM: TIMESTEP
690
ITEM: NUMBER OF ATOMS
1
ITEM: BOX BOUNDS mm mm mm
-1.0000000000000000e-03 1.0000000000000000e-03
-1.0000000000000000e-03 1.0000000000000000e-03
-1.0000000000000000e-03 1.0000000000000000e-03
ITEM: ATOMS id x y z vx vy vz
1 4.00055e-05 -4.94732e-05 1.5501e-05 11.4448 -14.054 -80.1547
ITEM: TIMESTEP
700
ITEM: NUMBER OF ATOMS
1
ITEM: BOX BOUNDS mm mm mm
-1.0000000000000000e-03 1.0000000000000000e-03
-1.0000000000000000e-03 1.0000000000000000e-03
-1.0000000000000000e-03 1.0000000000000000e-03
ITEM: ATOMS id x y z vx vy vz
1 4.00799e-05 -4.95646e-05 1.46973e-05 3.43752 -4.22121 -80.5843
ITEM: TIMESTEP
710
ITEM: NUMBER OF ATOMS
1
ITEM: BOX BOUNDS mm mm mm
-1.0000000000000000e-03 1.0000000000000000e-03
-1.0000000000000000e-03 1.0000000000000000e-03
-1.0000000000000000e-03 1.0000000000000000e-03
ITEM: ATOMS id x y z vx vy vz
1 4.00742e-05 -4.95577e-05 1.38894e-05 -4.56936 5.61109 -80.9873
ITEM: TIMESTEP
720
ITEM: NUMBER OF ATOMS
1
ITEM: BOX BOUNDS mm mm mm
-1.0000000000000000e-03 1.0000000000000000e-03
-1.0000000000000000e-03 1.0000000000000000e-03
-1.0000000000000000e-03 1.0000000000000000e-03
ITEM: ATOMS id x y z vx vy vz
1 3.99886e-05 -4.94525e-05 1.30777e-05 -12.5599 15.4233 -81.3637
ITEM: TIMESTEP
730
ITEM: NUMBER OF ATOMS
1
ITEM: BOX BOUNDS mm mm mm
-1.0000000000000000e-03 1.0000000000000000e-03
-1.0000000000000000e-03 1.0000000000000000e-03
-1.0000000000000000e-03 1.0000000000000000e-03
ITEM: ATOMS id x y z vx vy vz
1 3.98232e-05 -4.92493e-05 1.22623e-05 -20.5183 25.196 -81.7132
ITEM: TIMESTEP
740
ITEM: NUMBER OF ATOMS
1
ITEM: BOX BOUNDS mm mm mm
-1.0000000000000000e-03 1.0000000000000000e-03
-1.0000000000000000e-03 1.0000000000000000e-03
-1.0000000000000000e-03 1.0000000000000000e-03
ITEM: ATOMS id x y z vx vy vz
1 3.95784e-05 -4.89487e-05 1.14435e-05 -28.4286 34.9098 -82.0359
ITEM: TIMESTEP
750
ITEM: NUMBER OF ATOMS
1
ITEM: BOX BOUNDS mm mm mm
-1.0000000000000000e-03 1.0000000000000000e-03
-1.0000000000000000e-03 1.0000000000000000e-03
-1.0000000000000000e-03 1.0000000000000000e-03
ITEM: ATOMS id x y z vx vy vz
1 3.92548e-05 -4.85514e-05 1.06216e-05 -36.2753 44.5454 -82.3316
ITEM: TIMESTEP
760
ITEM: NUMBER OF ATOMS
1
ITEM: BOX BOUNDS mm mm mm
-1.0000000000000000e-03 1.0000000000000000e-03
-1.0000000000000000e-03 1.0000000000000000e-03
-1.0000000000000000e-03 1.0000000000000000e-03
ITEM: ATOMS id x y z vx vy vz
1 3.88531e-05 -4.80581e-05 9.79694e-06 -44.0427 54.0836 -82.6003
ITEM: TIMESTEP
770
ITEM: NUMBER OF ATOMS
1
ITEM: BOX BOUNDS mm mm mm
-1.0000000000000000e-03 1.0000000000000000e-03
-1.0000000000000000e-03 1.0000000000000000e-03
-1.0000000000000000e-03 1.0000000000000000e-03
ITEM: ATOMS id x y z vx vy vz
1 3.83742e-05 -4.74701e-05 8.9697e-06 -51.7155 63.5057 -82.842
ITEM: TIMESTEP
780
ITEM: NUMBER OF ATOMS
1
ITEM: BOX BOUNDS mm mm mm
-1.0000000000000000e-03 1.0000000000000000e-03
-1.0000000000000000e-03 1.0000000000000000e-03
-1.0000000000000000e-03 1.0000000000000000e-03
ITEM: ATOMS id x y z vx vy vz
1 3.78192e-05 -4.67885e-05 8.14019e-06 -59.2786 72.793 -83.0566
ITEM: TIMESTEP
790
ITEM: NUMBER OF ATOMS
1
ITEM: BOX BOUNDS mm mm mm
-1.0000000000000000e-03 1.0000000000000000e-03
-1.0000000000000000e-03 1.0000000000000000e-03
-1.0000000000000000e-03 1.0000000000000000e-03
ITEM: ATOMS id x y z vx vy vz
1 3.71891e-05 -4.60147e-05 7.30866e-06 -66.7169 81.9271 -83.244
ITEM: TIMESTEP
800
ITEM: NUMBER OF ATOMS
1
ITEM: BOX BOUNDS mm mm mm
-1.0000000000000000e-03 1.0000000000000000e-03
-1.0000000000000000e-03 1.0000000000000000e-03
-1.0000000000000000e-03 1.0000000000000000e-03
ITEM: ATOMS id x y z vx vy vz
1 3.64853e-05 -4.51505e-05 6.4754e-06 -74.0158 90.89 -83.4043
ITEM: TIMESTEP
810
ITEM: NUMBER OF ATOMS
1
ITEM: BOX BOUNDS mm mm mm
-1.0000000000000000e-03 1.0000000000000000e-03
-1.0000000000000000e-03 1.0000000000000000e-03
-1.0000000000000000e-03 1.0000000000000000e-03
ITEM: ATOMS id x y z vx vy vz
1 3.57093e-05 -4.41976e-05 5.64067e-06 -81.1609 99.6641 -83.5374
ITEM: TIMESTEP
820
ITEM: NUMBER OF ATOMS
1
ITEM: BOX BOUNDS mm mm mm
-1.0000000000000000e-03 1.0000000000000000e-03
-1.0000000000000000e-03 1.0000000000000000e-03
-1.0000000000000000e-03 1.0000000000000000e-03
ITEM: ATOMS id x y z vx vy vz
1 3.48626e-05 -4.31579e-05 4.80474e-06 -88.1381 108.232 -83.6434
ITEM: TIMESTEP
830
ITEM: NUMBER OF ATOMS
1
ITEM: BOX BOUNDS mm mm mm
-1.0000000000000000e-03 1.0000000000000000e-03
-1.0000000000000000e-03 1.0000000000000000e-03
-1.0000000000000000e-03 1.0000000000000000e-03
ITEM: ATOMS id x y z vx vy vz
1 3.39471e-05 -4.20337e-05 3.96789e-06 -94.9338 116.577 -83.7221
ITEM: TIMESTEP
840
ITEM: NUMBER OF ATOMS
1
ITEM: BOX BOUNDS mm mm mm
-1.0000000000000000e-03 1.0000000000000000e-03
-1.0000000000000000e-03 1.0000000000000000e-03
-1.0000000000000000e-03 1.0000000000000000e-03
ITEM: ATOMS id x y z vx vy vz
1 3.29646e-05 -4.08272e-05 3.13039e-06 -101.535 124.682 -83.7737
ITEM: TIMESTEP
850
ITEM: NUMBER OF ATOMS
1
ITEM: BOX BOUNDS mm mm mm
-1.0000000000000000e-03 1.0000000000000000e-03
-1.0000000000000000e-03 1.0000000000000000e-03
-1.0000000000000000e-03 1.0000000000000000e-03
ITEM: ATOMS id x y z vx vy vz
1 3.19171e-05 -3.95409e-05 2.2925e-06 -107.927 132.533 -83.7981
ITEM: TIMESTEP
860
ITEM: NUMBER OF ATOMS
1
ITEM: BOX BOUNDS mm mm mm
-1.0000000000000000e-03 1.0000000000000000e-03
-1.0000000000000000e-03 1.0000000000000000e-03
-1.0000000000000000e-03 1.0000000000000000e-03
ITEM: ATOMS id x y z vx vy vz
1 3.08068e-05 -3.81774e-05 1.45451e-06 -114.1 140.112 -83.7954
ITEM: TIMESTEP
870
ITEM: NUMBER OF ATOMS
1
ITEM: BOX BOUNDS mm mm mm
-1.0000000000000000e-03 1.0000000000000000e-03
-1.0000000000000000e-03 1.0000000000000000e-03
-1.0000000000000000e-03 1.0000000000000000e-03
ITEM: ATOMS id x y z vx vy vz
1 2.96359e-05 -3.67395e-05 6.16686e-07 -120.04 147.406 -83.7656
ITEM: TIMESTEP
880
ITEM: NUMBER OF ATOMS
1
ITEM: BOX BOUNDS mm mm mm
-1.0000000000000000e-03 1.0000000000000000e-03
-1.0000000000000000e-03 1.0000000000000000e-03
-1.0000000000000000e-03 1.0000000000000000e-03
ITEM: ATOMS id x y z vx vy vz
1 2.84068e-05 -3.52302e-05 -2.20709e-07 -125.735 154.401 -83.7087
ITEM: TIMESTEP
890
ITEM: NUMBER OF ATOMS
1
ITEM: BOX BOUNDS mm mm mm
-1.0000000000000000e-03 1.0000000000000000e-03
-1.0000000000000000e-03 1.0000000000000000e-03
-1.0000000000000000e-03 1.0000000000000000e-03
ITEM: ATOMS id x y z vx vy vz
1 2.7122e-05 -3.36526e-05 -1.0574e-06 -131.176 161.082 -83.6249
ITEM: TIMESTEP
900
ITEM: NUMBER OF ATOMS
1
ITEM: BOX BOUNDS mm mm mm
-1.0000000000000000e-03 1.0000000000000000e-03
-1.0000000000000000e-03 1.0000000000000000e-03
-1.0000000000000000e-03 1.0000000000000000e-03
ITEM: ATOMS id x y z vx vy vz
1 2.57842e-05 -3.20097e-05 -1.89312e-06 -136.351 167.436 -83.5141
ITEM: TIMESTEP
910
ITEM: NUMBER OF ATOMS
1
ITEM: BOX BOUNDS mm mm mm
-1.0000000000000000e-03 1.0000000000000000e-03
-1.0000000000000000e-03 1.0000000000000000e-03
-1.0000000000000000e-03 1.0000000000000000e-03
ITEM: ATOMS id x y z vx vy vz
1 2.43959e-05 -3.0305e-05 -2.72759e-06 -141.25 173.452 -83.3764
ITEM: TIMESTEP
920
ITEM: NUMBER OF ATOMS
1
ITEM: BOX BOUNDS mm mm mm
-1.0000000000000000e-03 1.0000000000000000e-03
-1.0000000000000000e-03 1.0000000000000000e-03
-1.0000000000000000e-03 1.0000000000000000e-03
ITEM: ATOMS id x y z vx vy vz
1 2.29601e-05 -2.85418e-05 -3.56056e-06 -145.864 179.118 -83.212
ITEM: TIMESTEP
930
ITEM: NUMBER OF ATOMS
1
ITEM: BOX BOUNDS mm mm mm
-1.0000000000000000e-03 1.0000000000000000e-03
-1.0000000000000000e-03 1.0000000000000000e-03
-1.0000000000000000e-03 1.0000000000000000e-03
ITEM: ATOMS id x y z vx vy vz
1 2.14796e-05 -2.67238e-05 -4.39175e-06 -150.183 184.422 -83.0209
ITEM: TIMESTEP
940
ITEM: NUMBER OF ATOMS
1
ITEM: BOX BOUNDS mm mm mm
-1.0000000000000000e-03 1.0000000000000000e-03
-1.0000000000000000e-03 1.0000000000000000e-03
-1.0000000000000000e-03 1.0000000000000000e-03
ITEM: ATOMS id x y z vx vy vz
1 1.99574e-05 -2.48546e-05 -5.22089e-06 -154.2 189.355 -82.8031
ITEM: TIMESTEP
950
ITEM: NUMBER OF ATOMS
1
ITEM: BOX BOUNDS mm mm mm
-1.0000000000000000e-03 1.0000000000000000e-03
-1.0000000000000000e-03 1.0000000000000000e-03
-1.0000000000000000e-03 1.0000000000000000e-03
ITEM: ATOMS id x y z vx vy vz
1 1.83966e-05 -2.2938e-05 -6.04772e-06 -157.906 193.906 -82.5589
ITEM: TIMESTEP
960
ITEM: NUMBER OF ATOMS
1
ITEM: BOX BOUNDS mm mm mm
-1.0000000000000000e-03 1.0000000000000000e-03
-1.0000000000000000e-03 1.0000000000000000e-03
-1.0000000000000000e-03 1.0000000000000000e-03
ITEM: ATOMS id x y z vx vy vz
1 1.68004e-05 -2.09778e-05 -6.87198e-06 -161.296 198.068 -82.2883
ITEM: TIMESTEP
970
ITEM: NUMBER OF ATOMS
1
ITEM: BOX BOUNDS mm mm mm
-1.0000000000000000e-03 1.0000000000000000e-03
-1.0000000000000000e-03 1.0000000000000000e-03
-1.0000000000000000e-03 1.0000000000000000e-03
ITEM: ATOMS id x y z vx vy vz
1 1.51718e-05 -1.89779e-05 -7.6934e-06 -164.361 201.832 -81.9914
ITEM: TIMESTEP
980
ITEM: NUMBER OF ATOMS
1
ITEM: BOX BOUNDS mm mm mm
-1.0000000000000000e-03 1.0000000000000000e-03
-1.0000000000000000e-03 1.0000000000000000e-03